
#(C) 2017 by FIZ Karlsruhe - Leibniz Institute for Information Infrastructure.  All rights reserved.
data_100061-ICSD
_database_code_ICSD 100061
_audit_creation_date 1980-01-01
_audit_update_record 1999-11-30
_chemical_name_systematic 'Lithium iron germanide (1/6/4)'
_chemical_formula_structural 'Li Fe6 Ge4'
_chemical_formula_sum 'Fe6 Ge4 Li1'
_exptl_crystal_density_diffrn 7.27
_publ_section_title

;
Li Fe6 Ge5 und Li Fe6 Ge4. Zwei Phasen mit enger Strukturbeziehung zu der
Verbindung Li Fe6 Ge6
;
loop_
_citation_id
_citation_journal_full
_citation_year
_citation_journal_volume
_citation_page_first
_citation_page_last
_citation_journal_id_ASTM
primary

;
Zeitschrift fuer Naturforschung, Teil B. Anorganische Chemie, Organische
Chemie (2,1947-32,1977)
; 1977 32 749 752 ZENBAX
loop_
_publ_author_name
'Welk, E.'
'Schuster, H.U.'
_cell_length_a 8.739
_cell_length_b 5.045
_cell_length_c 7.17
_cell_angle_alpha 90.
_cell_angle_beta 113.94
_cell_angle_gamma 90.
_cell_volume 288.92
_cell_formula_units_Z 2
_symmetry_space_group_name_H-M 'C 1 2/m 1'
_symmetry_Int_Tables_number 12
_refine_ls_R_factor_all 0.102
loop_
_symmetry_equiv_pos_site_id
_symmetry_equiv_pos_as_xyz
1 '-x, y, -z'
2 '-x, -y, -z'
3 'x, -y, z'
4 'x, y, z'
5 '-x+1/2, y+1/2, -z'
6 '-x+1/2, -y+1/2, -z'
7 'x+1/2, -y+1/2, z'
8 'x+1/2, y+1/2, z'
loop_
_atom_type_symbol
_atom_type_oxidation_number
Fe0+ 0
Ge0+ 0
Li0+ 0
loop_
_atom_site_label
_atom_site_type_symbol
_atom_site_symmetry_multiplicity
_atom_site_Wyckoff_symbol
_atom_site_fract_x
_atom_site_fract_y
_atom_site_fract_z
_atom_site_B_iso_or_equiv
_atom_site_occupancy
_atom_site_attached_hydrogens
Fe1 Fe0+ 4 i 0.401 0 0.809 0.00963 1. 0
Fe2 Fe0+ 8 j 0.355 0.25 0.19 0.00808 1. 0
Ge1 Ge0+ 4 i 0.126 0 0.122 0.01038 1. 0
Ge2 Ge0+ 4 i 0.333 0 0.5 0.01305 1. 0
Li1 Li0+ 2 c 0 0 0.5 0.01267 1. 0
#End of TTdata_100061-ICSD