
#(C) 2017 by FIZ Karlsruhe - Leibniz Institute for Information Infrastructure.  All rights reserved.
data_100181-ICSD
_database_code_ICSD 100181
_audit_creation_date 1980-12-31
_audit_update_record 1998-06-26
_chemical_name_systematic 'Sodium iron(III) sulfide dihydrate'
_chemical_formula_structural 'Na Fe S2 (H2 O)2'
_chemical_formula_sum 'H4 Fe1 Na1 O2 S2'
_chemical_name_mineral Erdite
_exptl_crystal_density_diffrn 2.22
_publ_section_title 'The crystal structure of erdite, Na Fe S2 (H2 O)2'
loop_
_citation_id
_citation_journal_full
_citation_year
_citation_journal_volume
_citation_page_first
_citation_page_last
_citation_journal_id_ASTM
primary 'American Mineralogist' 1980 65 516 521 AMMIAY
loop_
_publ_author_name
'Konnert, J.A.'
'Evans, H.T.jr.'
_cell_length_a 10.693(1)
_cell_length_b 9.115(1)
_cell_length_c 5.507(4)
_cell_angle_alpha 90.
_cell_angle_beta 92.17(2)
_cell_angle_gamma 90.
_cell_volume 536.36
_cell_formula_units_Z 4
_symmetry_space_group_name_H-M 'C 1 2/c 1'
_symmetry_Int_Tables_number 15
_refine_ls_R_factor_all 0.17
loop_
_symmetry_equiv_pos_site_id
_symmetry_equiv_pos_as_xyz
1 'x, -y, z+1/2'
2 '-x, -y, -z'
3 '-x, y, -z+1/2'
4 'x, y, z'
5 'x+1/2, -y+1/2, z+1/2'
6 '-x+1/2, -y+1/2, -z'
7 '-x+1/2, y+1/2, -z+1/2'
8 'x+1/2, y+1/2, z'
loop_
_atom_type_symbol
_atom_type_oxidation_number
Na1+ 1
Fe3+ 3
S2- -2
O2- -2
H1+ 1
loop_
_atom_site_label
_atom_site_type_symbol
_atom_site_symmetry_multiplicity
_atom_site_Wyckoff_symbol
_atom_site_fract_x
_atom_site_fract_y
_atom_site_fract_z
_atom_site_B_iso_or_equiv
_atom_site_occupancy
_atom_site_attached_hydrogens
Na1 Na1+ 4 e 0 0.387(3) 0.25 . 1. 0
Fe1 Fe3+ 4 e 0 -.001(1) 0.25 . 1. 0
S1 S2- 8 f 0.118(1) 0.864(1) 0.008(2) . 1. 0
O1 O2- 8 f 0.130(4) 0.584(4) 0.414(6) . 1. 0
loop_
_atom_site_aniso_label
_atom_site_aniso_type_symbol
_atom_site_aniso_U_11
_atom_site_aniso_U_22
_atom_site_aniso_U_33
_atom_site_aniso_U_12
_atom_site_aniso_U_13
_atom_site_aniso_U_23
Na1 Na1+ 0.042(19) 0.036(19) 0.017(17) 0 0.007(12) 0
Fe1 Fe3+ 0.021(5) 0.011(5) 0.007(4) 0 0.002(3) 0
S1 S2- 0.019(6) 0.022(7) 0.010(6) 0.009(5) -.007(4) -.001(5)
O1 O2- 0.065(27) 0.027(20) 0.004(16) -.012(18) 0.001(15) 0.005(14)
#End of TTdata_100181-ICSD