
#(C) 2017 by FIZ Karlsruhe - Leibniz Institute for Information Infrastructure.  All rights reserved.
data_100155-ICSD
_database_code_ICSD 100155
_audit_creation_date 1980-01-01
_audit_update_record 2015-02-01
_chemical_name_systematic 'Cesium tetrachloroplatinate(II)'
_chemical_formula_structural 'Cs2 Pt Cl4'
_chemical_formula_sum 'Cl4 Cs2 Pt1'
_chemical_name_structure_type Cs2PtCl4
_exptl_crystal_density_diffrn 3.96
_publ_section_title 'Kristallstrukturuntersuchung an Cs2 Pt Cl4'
loop_
_citation_id
_citation_journal_full
_citation_year
_citation_journal_volume
_citation_page_first
_citation_page_last
_citation_journal_id_ASTM
primary 'Neues Jahrbuch fuer Mineralogie. Monatshefte (Band=Jahr) (1950-)' 1979
1979 81 85 NJMMAW
loop_
_publ_author_name
'Rodek, E.'
'Bartl, H.'
'Sterzel, W.'
'Platte, C.'
_cell_length_a 10.404(5)
_cell_length_b 10.133(5)
_cell_length_c 9.598(2)
_cell_angle_alpha 90.
_cell_angle_beta 90.
_cell_angle_gamma 90.
_cell_volume 1011.86
_cell_formula_units_Z 4
_symmetry_space_group_name_H-M 'C m c m'
_symmetry_Int_Tables_number 63
_refine_ls_R_factor_all 0.052
loop_
_symmetry_equiv_pos_site_id
_symmetry_equiv_pos_as_xyz
1 '-x, y, -z+1/2'
2 '-x, -y, z+1/2'
3 '-x, y, z'
4 '-x, -y, -z'
5 'x, -y, z+1/2'
6 'x, y, -z+1/2'
7 'x, -y, -z'
8 'x, y, z'
9 '-x+1/2, y+1/2, -z+1/2'
10 '-x+1/2, -y+1/2, z+1/2'
11 '-x+1/2, y+1/2, z'
12 '-x+1/2, -y+1/2, -z'
13 'x+1/2, -y+1/2, z+1/2'
14 'x+1/2, y+1/2, -z+1/2'
15 'x+1/2, -y+1/2, -z'
16 'x+1/2, y+1/2, z'
loop_
_atom_type_symbol
_atom_type_oxidation_number
Pt2+ 2
Cl1- -1
Cs1+ 1
loop_
_atom_site_label
_atom_site_type_symbol
_atom_site_symmetry_multiplicity
_atom_site_Wyckoff_symbol
_atom_site_fract_x
_atom_site_fract_y
_atom_site_fract_z
_atom_site_B_iso_or_equiv
_atom_site_occupancy
_atom_site_attached_hydrogens
Pt1 Pt2+ 4 a 0 0 0 . 1. 0
Cl1 Cl1- 8 e 0.2205(2) 0 0 . 1. 0
Cl2 Cl1- 8 f 0 0.2260(3) 0.9728(3) . 1. 0
Cs1 Cs1+ 8 g 0.2239(1) 0.2579(1) 0.25 . 1. 0
loop_
_atom_site_aniso_label
_atom_site_aniso_type_symbol
_atom_site_aniso_U_11
_atom_site_aniso_U_22
_atom_site_aniso_U_33
_atom_site_aniso_U_12
_atom_site_aniso_U_13
_atom_site_aniso_U_23
Pt1 Pt2+ 0.0214(3) 0.0213(3) 0.0202(3) 0 0 -.0002(2)
Cl1 Cl1- 0.0253(10) 0.0311(12) 0.0435(18) 0 0 0.0025(9)
Cl2 Cl1- 0.0334(12) 0.0251(10) 0.0419(20) 0 0 0.0007(9)
Cs1 Cs1+ 0.0356(4) 0.0408(4) 0.0266(5) -.0035(4) 0 0
#End of TTdata_100155-ICSD