
#(C) 2017 by FIZ Karlsruhe - Leibniz Institute for Information Infrastructure.  All rights reserved.
data_10032-ICSD
_database_code_ICSD 10032
_audit_creation_date 1980-01-01
_audit_update_record 2012-02-01
_chemical_name_systematic 'Aluminium silicon phosphide (1/1/3)'
_chemical_formula_structural 'Al Si P3'
_chemical_formula_sum 'Al1 P3 Si1'
_exptl_crystal_density_diffrn 2.79
_publ_section_title
'Al Si P3, a compound with a novel wurtzite-pyrite intergrowth structure'
loop_
_citation_id
_citation_journal_full
_citation_year
_citation_journal_volume
_citation_page_first
_citation_page_last
_citation_journal_id_ASTM
primary 'Journal of Solid State Chemistry' 1979 28 13 19 JSSCBI
loop_
_publ_author_name
'von Schnering, H.G.'
'Menge, G.'
_cell_length_a 9.872(5)
_cell_length_b 5.861(2)
_cell_length_c 6.088(2)
_cell_angle_alpha 90.
_cell_angle_beta 90.
_cell_angle_gamma 90.
_cell_volume 352.25
_cell_formula_units_Z 4
_symmetry_space_group_name_H-M 'P m n b'
_symmetry_Int_Tables_number 62
_refine_ls_R_factor_all 0.023
loop_
_symmetry_equiv_pos_site_id
_symmetry_equiv_pos_as_xyz
1 'x, y+1/2, -z+1/2'
2 '-x+1/2, y, z'
3 'x+1/2, -y+1/2, z+1/2'
4 '-x, -y, -z'
5 '-x, -y+1/2, z+1/2'
6 'x+1/2, -y, -z'
7 '-x+1/2, y+1/2, -z+1/2'
8 'x, y, z'
loop_
_atom_type_symbol
_atom_type_oxidation_number
Al0+ 0
Si0+ 0
P0+ 0
loop_
_atom_site_label
_atom_site_type_symbol
_atom_site_symmetry_multiplicity
_atom_site_Wyckoff_symbol
_atom_site_fract_x
_atom_site_fract_y
_atom_site_fract_z
_atom_site_B_iso_or_equiv
_atom_site_occupancy
_atom_site_attached_hydrogens
Al1 Al0+ 4 a 0 0 0 . 1. 0
Si1 Si0+ 4 c 0.25 0.4992(1) 0.0616(1) . 1. 0
P1 P0+ 4 c 0.25 0.3876(1) 0.4139(1) . 1. 0
P2 P0+ 8 d 0.0586(1) 0.3890(1) 0.8920(1) . 1. 0
loop_
_atom_site_aniso_label
_atom_site_aniso_type_symbol
_atom_site_aniso_B_11
_atom_site_aniso_B_22
_atom_site_aniso_B_33
_atom_site_aniso_B_12
_atom_site_aniso_B_13
_atom_site_aniso_B_23
Al1 Al0+ 0.87(3) 0.67(3) 0.69(3) -.07(2) 0.02(2) 0.00(2)
Si1 Si0+ 0.48(3) 0.71(3) 0.60(3) 0 0 -.02(2)
P1 P0+ 0.53(3) 0.66(3) 0.62(3) 0 0 0.01(2)
P2 P0+ 0.50(2) 0.63(2) 0.53(2) -.01(1) -.02(1) -.02(1)
#End of TTdata_10032-ICSD