
#(C) 2017 by FIZ Karlsruhe - Leibniz Institute for Information Infrastructure.  All rights reserved.
data_100602-ICSD
_database_code_ICSD 100602
_audit_creation_date 1980-01-01
_audit_update_record 2006-04-01
_chemical_name_systematic 'Bismuth vanadate - HT'
_chemical_formula_structural 'Bi (V O4)'
_chemical_formula_sum 'Bi1 O4 V1'
_chemical_name_structure_type YNbO4(mS24)
_chemical_name_mineral Clinobisvanite
_exptl_crystal_density_diffrn 6.96
_publ_section_title 'Crystal growth and structure of Bi V O4'
loop_
_citation_id
_citation_journal_full
_citation_year
_citation_journal_volume
_citation_page_first
_citation_page_last
_citation_journal_id_ASTM
primary 'Materials Research Bulletin' 1979 14 1571 1581 MRBUAC
loop_
_publ_author_name
'Sleight, A.W.'
'Chen, H.-Y.'
'Ferretti, A.'
'Cox, D.E.'
_cell_length_a 5.1935(3)
_cell_length_b 5.0898(3)
_cell_length_c 11.6972(8)
_cell_angle_alpha 90.
_cell_angle_beta 90.
_cell_angle_gamma 90.387(4)
_cell_volume 309.2
_cell_formula_units_Z 4
_symmetry_space_group_name_H-M 'I 1 1 2/b'
_symmetry_Int_Tables_number 15
_refine_ls_R_factor_all 0.028
loop_
_symmetry_equiv_pos_site_id
_symmetry_equiv_pos_as_xyz
1 '-x, -y+1/2, z'
2 'x, y+1/2, -z'
3 '-x, -y, -z'
4 'x, y, z'
5 '-x+1/2, -y, z+1/2'
6 'x+1/2, y, -z+1/2'
7 '-x+1/2, -y+1/2, -z+1/2'
8 'x+1/2, y+1/2, z+1/2'
loop_
_atom_type_symbol
_atom_type_oxidation_number
Bi3+ 3
V5+ 5
O2- -2
loop_
_atom_site_label
_atom_site_type_symbol
_atom_site_symmetry_multiplicity
_atom_site_Wyckoff_symbol
_atom_site_fract_x
_atom_site_fract_y
_atom_site_fract_z
_atom_site_B_iso_or_equiv
_atom_site_occupancy
_atom_site_attached_hydrogens
Bi1 Bi3+ 4 e 0 0.25 0.6335(2) 0.80(4) 1. 0
V1 V5+ 4 e 0 0.25 0.130(3) -.3(4) 1. 0
O1 O2- 8 f 0.1465(4) 0.5077(4) 0.2082(2) 0.85(4) 1. 0
O2 O2- 8 f 0.2606(5) 0.3810(4) 0.4493(2) 0.85(4) 1. 0
#End of TTdata_100602-ICSD