
#(C) 2017 by FIZ Karlsruhe - Leibniz Institute for Information Infrastructure.  All rights reserved.
data_100717-ICSD
_database_code_ICSD 100717
_audit_creation_date 1980-12-31
_chemical_name_systematic 'Lanthanum tetrairidium tetraboride'
_chemical_formula_structural 'La Ir4 B4'
_chemical_formula_sum 'B4 Ir4 La1'
_chemical_name_structure_type Co4NdB4
_exptl_crystal_density_diffrn 13.56
_publ_section_title

;
The crystal structure of La Ir4 B4, Th Os4 B4, Th Ir4 B4 ( Nd Co4 B4 - type )
and U Ru4 B4, U Os4 B4 ( Lu Ru4 B4 - type)
;
loop_
_citation_id
_citation_journal_full
_citation_year
_citation_journal_volume
_citation_page_first
_citation_page_last
_citation_journal_id_ASTM
primary 'Monatshefte fuer Chemie' 1980 111 517 527 MOCMB7
loop_
_publ_author_name
'Rogl, P.'
_cell_length_a 7.6719(4)
_cell_length_b 7.6719(4)
_cell_length_c 3.9739(2)
_cell_angle_alpha 90.
_cell_angle_beta 90.
_cell_angle_gamma 90.
_cell_volume 233.9
_cell_formula_units_Z 2
_symmetry_space_group_name_H-M 'P 42/n Z'
_symmetry_Int_Tables_number 86
_refine_ls_R_factor_all 0.039
loop_
_symmetry_equiv_pos_site_id
_symmetry_equiv_pos_as_xyz
1 '-y+1/2, x, -z+1/2'
2 'y, -x+1/2, -z+1/2'
3 'x+1/2, y+1/2, -z'
4 '-x, -y, -z'
5 'y+1/2, -x, z+1/2'
6 '-y, x+1/2, z+1/2'
7 '-x+1/2, -y+1/2, z'
8 'x, y, z'
loop_
_atom_type_symbol
_atom_type_oxidation_number
La0+ 0
Ir0+ 0
B0+ 0
loop_
_atom_site_label
_atom_site_type_symbol
_atom_site_symmetry_multiplicity
_atom_site_Wyckoff_symbol
_atom_site_fract_x
_atom_site_fract_y
_atom_site_fract_z
_atom_site_B_iso_or_equiv
_atom_site_occupancy
_atom_site_attached_hydrogens
La1 La0+ 2 b 0.25 0.25 0.75 . 1. 0
Ir1 Ir0+ 8 g 0.5937(1) 0.1397(1) 0.1441(2) . 1. 0
B1 B0+ 8 g 0.529(2) 0.405(4) 0.142(6) 1.7(5) 1. 0
loop_
_atom_site_aniso_label
_atom_site_aniso_type_symbol
_atom_site_aniso_U_11
_atom_site_aniso_U_22
_atom_site_aniso_U_33
_atom_site_aniso_U_12
_atom_site_aniso_U_13
_atom_site_aniso_U_23
La1 La0+ 0.0089(7) 0.0089(7) 0.0156(12) 0 0 0
Ir1 Ir0+ 0.0089(4) 0.0070(4) 0.0109(5) -.0003 -.0004 -.0001
#End of TTdata_100717-ICSD