
#(C) 2017 by FIZ Karlsruhe - Leibniz Institute for Information Infrastructure.  All rights reserved.
data_100796-ICSD
_database_code_ICSD 100796
_audit_creation_date 1981-12-31
_chemical_name_systematic 'Dicopper germanate'
_chemical_formula_structural 'Cu2 Ge O4'
_chemical_formula_sum 'Cu2 Ge1 O4'
_chemical_name_structure_type CdMn2O4
_exptl_crystal_density_diffrn 5.96
_publ_section_title
'High pressure synthesis of Cu2 Ge O4 with Hausmannite structure'
loop_
_citation_id
_citation_journal_full
_citation_year
_citation_journal_volume
_citation_page_first
_citation_page_last
_citation_journal_id_ASTM
primary 'Materials Research Bulletin' 1981 16 413 417 MRBUAC
loop_
_publ_author_name
'Hegenbart, W.'
'Rau, F.'
'Range, K.J.'
_cell_length_a 5.593(1)
_cell_length_b 5.593(1)
_cell_length_c 9.395(2)
_cell_angle_alpha 90.
_cell_angle_beta 90.
_cell_angle_gamma 90.
_cell_volume 293.89
_cell_formula_units_Z 4
_symmetry_space_group_name_H-M 'I 41/a m d S'
_symmetry_Int_Tables_number 141
_refine_ls_R_factor_all 0.045
loop_
_symmetry_equiv_pos_site_id
_symmetry_equiv_pos_as_xyz
1 'y, -x+1/2, z+1/4'
2 '-y, x+1/2, z+1/4'
3 'y, -x, -z'
4 '-y, x, -z'
5 '-y, -x+1/2, z+1/4'
6 'y, x+1/2, z+1/4'
7 '-y, -x, -z'
8 'y, x, -z'
9 'x, -y+1/2, -z+1/4'
10 '-x, y+1/2, -z+1/4'
11 'x, -y, z'
12 '-x, y, z'
13 '-x, -y+1/2, -z+1/4'
14 'x, y+1/2, -z+1/4'
15 '-x, -y, z'
16 'x, y, z'
17 'y+1/2, -x, z+3/4'
18 '-y+1/2, x, z+3/4'
19 'y+1/2, -x+1/2, -z+1/2'
20 '-y+1/2, x+1/2, -z+1/2'
21 '-y+1/2, -x, z+3/4'
22 'y+1/2, x, z+3/4'
23 '-y+1/2, -x+1/2, -z+1/2'
24 'y+1/2, x+1/2, -z+1/2'
25 'x+1/2, -y, -z+3/4'
26 '-x+1/2, y, -z+3/4'
27 'x+1/2, -y+1/2, z+1/2'
28 '-x+1/2, y+1/2, z+1/2'
29 '-x+1/2, -y, -z+3/4'
30 'x+1/2, y, -z+3/4'
31 '-x+1/2, -y+1/2, z+1/2'
32 'x+1/2, y+1/2, z+1/2'
loop_
_atom_type_symbol
_atom_type_oxidation_number
Ge4+ 4
Cu2+ 2
O2- -2
loop_
_atom_site_label
_atom_site_type_symbol
_atom_site_symmetry_multiplicity
_atom_site_Wyckoff_symbol
_atom_site_fract_x
_atom_site_fract_y
_atom_site_fract_z
_atom_site_B_iso_or_equiv
_atom_site_occupancy
_atom_site_attached_hydrogens
Ge1 Ge4+ 4 a 0 0 0 0.31 1. 0
Cu1 Cu2+ 8 d 0 0.25 0.625 0.44 1. 0
O1 O2- 16 h 0 0.241(3) 0.359(1) 0.32 1. 0
#End of TTdata_100796-ICSD