
#(C) 2017 by FIZ Karlsruhe - Leibniz Institute for Information Infrastructure.  All rights reserved.
data_102517-ICSD
_database_code_ICSD 102517
_audit_creation_date 2004-10-01
_chemical_name_systematic 'Cobalt lanthanum tin (2/3/7)'
_chemical_formula_structural 'Co2 La3 Sn7'
_chemical_formula_sum 'Co2 La3 Sn7'
_chemical_name_structure_type Ce3Ni2-xSn7-y
_exptl_crystal_density_diffrn 7.78
_publ_section_title
'Darstellung und Kristallstruktur von Ba Pd Sn3, Sr Pd Sn3 und La3 Co2 Sn7'
loop_
_citation_id
_citation_journal_full
_citation_year
_citation_journal_volume
_citation_page_first
_citation_page_last
_citation_journal_id_ASTM
primary 'Journal of the Less-Common Metals' 1980 70 P1 P10 JCOMAH
loop_
_publ_author_name
'Doerrscheidt, W.'
'Schaefer, H.'
_cell_length_a 4.59(1)
_cell_length_b 27.60(5)
_cell_length_c 4.60(1)
_cell_angle_alpha 90.
_cell_angle_beta 90.
_cell_angle_gamma 90.
_cell_volume 582.75
_cell_formula_units_Z 2
_symmetry_space_group_name_H-M 'C m m m'
_symmetry_Int_Tables_number 65
_refine_ls_R_factor_all 0.048
loop_
_symmetry_equiv_pos_site_id
_symmetry_equiv_pos_as_xyz
1 'x, -y, z'
2 '-x, y, z'
3 'x, y, -z'
4 '-x, -y, -z'
5 '-x, y, -z'
6 'x, -y, -z'
7 '-x, -y, z'
8 'x, y, z'
9 'x+1/2, -y+1/2, z'
10 '-x+1/2, y+1/2, z'
11 'x+1/2, y+1/2, -z'
12 '-x+1/2, -y+1/2, -z'
13 '-x+1/2, y+1/2, -z'
14 'x+1/2, -y+1/2, -z'
15 '-x+1/2, -y+1/2, z'
16 'x+1/2, y+1/2, z'
loop_
_atom_type_symbol
_atom_type_oxidation_number
Co0+ 0
La0+ 0
Sn0+ 0
loop_
_atom_site_label
_atom_site_type_symbol
_atom_site_symmetry_multiplicity
_atom_site_Wyckoff_symbol
_atom_site_fract_x
_atom_site_fract_y
_atom_site_fract_z
_atom_site_B_iso_or_equiv
_atom_site_occupancy
_atom_site_attached_hydrogens
Co1 Co0+ 4 j 0 0.3717 0.5 . 1. 0
La1 La0+ 2 c 0.5 0 0.5 . 1. 0
La2 La0+ 4 i 0 0.1845 0 . 1. 0
Sn1 Sn0+ 2 a 0 0 0 . 1. 0
Sn2 Sn0+ 4 i 0 0.4095 0 . 1. 0
Sn3 Sn0+ 4 j 0 0.0907 0.5 . 1. 0
Sn4 Sn0+ 4 j 0 0.2822 0.5 . 1. 0
#End of TTdata_102517-ICSD