
data_102863-ICSD
_database_code_ICSD 102863
_audit_creation_date 2004-10-01
_chemical_name_systematic 'Cesium gallium (1/3)'
_chemical_formula_structural 'Cs Ga3'
_chemical_formula_sum 'Cs1 Ga3'
_chemical_name_structure_type KGa3
_exptl_crystal_density_diffrn 5.27
_cell_length_a 6.393(1)
_cell_length_b 6.393
_cell_length_c 15.829(2)
_cell_angle_alpha 90.
_cell_angle_beta 90.
_cell_angle_gamma 90.
_cell_volume 646.94
_cell_formula_units_Z 6
_symmetry_space_group_name_H-M 'I -4 m 2'
_symmetry_Int_Tables_number 119
_refine_ls_R_factor_all 0.141
loop_
_symmetry_equiv_pos_site_id
_symmetry_equiv_pos_as_xyz
1 'y, x, -z'
2 '-y, -x, -z'
3 'y, -x, -z'
4 '-y, x, -z'
5 'x, -y, z'
6 '-x, y, z'
7 '-x, -y, z'
8 'x, y, z'
9 'y+1/2, x+1/2, -z+1/2'
10 '-y+1/2, -x+1/2, -z+1/2'
11 'y+1/2, -x+1/2, -z+1/2'
12 '-y+1/2, x+1/2, -z+1/2'
13 'x+1/2, -y+1/2, z+1/2'
14 '-x+1/2, y+1/2, z+1/2'
15 '-x+1/2, -y+1/2, z+1/2'
16 'x+1/2, y+1/2, z+1/2'
loop_
_atom_type_symbol
_atom_type_oxidation_number
Cs0+ 0
Ga0+ 0
loop_
_atom_site_label
_atom_site_type_symbol
_atom_site_symmetry_multiplicity
_atom_site_Wyckoff_symbol
_atom_site_fract_x
_atom_site_fract_y
_atom_site_fract_z
_atom_site_B_iso_or_equiv
_atom_site_occupancy
_atom_site_attached_hydrogens
Cs1 Cs0+ 2 a 0 0 0 0.00(10) 1. 0
Cs2 Cs0+ 4 f 0 0.5 0.867(1) 1.65(8) 1. 0
Ga1 Ga0+ 2 b 0 0 0.5 0.00(8) 1. 0
Ga2 Ga0+ 8 i 0.786(3) 0 0.776(2) 0.27(5) 1. 0
Ga3 Ga0+ 8 i 0.693(3) 0 0.606(2) 0.00(7) 1. 0
