
data_10283-ICSD
_database_code_ICSD 10283
_audit_creation_date 1980-01-01
_audit_update_record 1999-11-30
_chemical_name_systematic 'Rubidium chlorate(V)'
_chemical_formula_structural 'Rb (Cl O3)'
_chemical_formula_sum 'Cl1 O3 Rb1'
_chemical_name_structure_type FeBiO3
_exptl_crystal_density_diffrn 3.2
_cell_length_a 6.092(1)
_cell_length_b 6.092(1)
_cell_length_c 8.173(2)
_cell_angle_alpha 90.
_cell_angle_beta 90.
_cell_angle_gamma 120.
_cell_volume 262.68
_cell_formula_units_Z 3
_symmetry_space_group_name_H-M 'R 3 m H'
_symmetry_Int_Tables_number 160
_refine_ls_R_factor_all 0.0364
loop_
_symmetry_equiv_pos_site_id
_symmetry_equiv_pos_as_xyz
1 '-x+y, y, z'
2 'x, x-y, z'
3 '-y, -x, z'
4 '-x+y, -x, z'
5 '-y, x-y, z'
6 'x, y, z'
7 '-x+y+2/3, y+1/3, z+1/3'
8 'x+2/3, x-y+1/3, z+1/3'
9 '-y+2/3, -x+1/3, z+1/3'
10 '-x+y+2/3, -x+1/3, z+1/3'
11 '-y+2/3, x-y+1/3, z+1/3'
12 'x+2/3, y+1/3, z+1/3'
13 '-x+y+1/3, y+2/3, z+2/3'
14 'x+1/3, x-y+2/3, z+2/3'
15 '-y+1/3, -x+2/3, z+2/3'
16 '-x+y+1/3, -x+2/3, z+2/3'
17 '-y+1/3, x-y+2/3, z+2/3'
18 'x+1/3, y+2/3, z+2/3'
loop_
_atom_type_symbol
_atom_type_oxidation_number
Rb1+ 1
Cl5+ 5
O2- -2
loop_
_atom_site_label
_atom_site_type_symbol
_atom_site_symmetry_multiplicity
_atom_site_Wyckoff_symbol
_atom_site_fract_x
_atom_site_fract_y
_atom_site_fract_z
_atom_site_B_iso_or_equiv
_atom_site_occupancy
_atom_site_attached_hydrogens
Rb1 Rb1+ 3 a 0 0 0 . 1. 0
Cl1 Cl5+ 3 a 0 0 0.4668(8) . 1. 0
O1 O2- 9 b 0.1296(5) -.1296(5) 0.3981(11) . 1. 0
loop_
_atom_site_aniso_label
_atom_site_aniso_type_symbol
_atom_site_aniso_beta_11
_atom_site_aniso_beta_22
_atom_site_aniso_beta_33
_atom_site_aniso_beta_12
_atom_site_aniso_beta_13
_atom_site_aniso_beta_23
Rb1 Rb1+ 0.0188(3) 0.0188 0.0122(3) 0.0094 0 0
Cl1 Cl5+ 0.0157(4) 0.0157 0.0069(5) 0.0079 0 0
O1 O2- 0.0265(13) 0.0265 0.0135(6) 0.0185(15) 0.0021(4) -.0021
