
data_102867-ICSD
_database_code_ICSD 102867
_audit_creation_date 2004-10-01
_chemical_name_systematic 'Cesium indium (1/3)'
_chemical_formula_structural 'Cs In3'
_chemical_formula_sum 'Cs1 In3'
_chemical_name_structure_type KGa3
_exptl_crystal_density_diffrn 5.7
_cell_length_a 7.047(4)
_cell_length_b 7.047
_cell_length_c 16.803(7)
_cell_angle_alpha 90.
_cell_angle_beta 90.
_cell_angle_gamma 90.
_cell_volume 834.44
_cell_formula_units_Z 6
_symmetry_space_group_name_H-M 'I -4 m 2'
_symmetry_Int_Tables_number 119
_refine_ls_R_factor_all 0.079
loop_
_symmetry_equiv_pos_site_id
_symmetry_equiv_pos_as_xyz
1 'y, x, -z'
2 '-y, -x, -z'
3 'y, -x, -z'
4 '-y, x, -z'
5 'x, -y, z'
6 '-x, y, z'
7 '-x, -y, z'
8 'x, y, z'
9 'y+1/2, x+1/2, -z+1/2'
10 '-y+1/2, -x+1/2, -z+1/2'
11 'y+1/2, -x+1/2, -z+1/2'
12 '-y+1/2, x+1/2, -z+1/2'
13 'x+1/2, -y+1/2, z+1/2'
14 '-x+1/2, y+1/2, z+1/2'
15 '-x+1/2, -y+1/2, z+1/2'
16 'x+1/2, y+1/2, z+1/2'
loop_
_atom_type_symbol
_atom_type_oxidation_number
Cs0+ 0
In0+ 0
loop_
_atom_site_label
_atom_site_type_symbol
_atom_site_symmetry_multiplicity
_atom_site_Wyckoff_symbol
_atom_site_fract_x
_atom_site_fract_y
_atom_site_fract_z
_atom_site_B_iso_or_equiv
_atom_site_occupancy
_atom_site_attached_hydrogens
Cs1 Cs0+ 2 a 0 0 0 . 1. 0
Cs2 Cs0+ 4 f 0 0.5 0.6278(2) . 1. 0
In1 In0+ 2 b 0 0 0.5 . 1. 0
In2 In0+ 8 i 0.6966(4) 0 0.6084(1) . 1. 0
In3 In0+ 8 i 0.7934(3) 0 0.7792(1) . 1. 0
loop_
_atom_site_aniso_label
_atom_site_aniso_type_symbol
_atom_site_aniso_B_11
_atom_site_aniso_B_22
_atom_site_aniso_B_33
_atom_site_aniso_B_12
_atom_site_aniso_B_13
_atom_site_aniso_B_23
Cs1 Cs0+ 3.2(1) 3.2 1.7(1) 0 0 0
Cs2 Cs0+ 2.3(1) 2.8(2) 3.0(1) 0 0 0
In1 In0+ 1.73(9) 1.73 1.59(11) 0 0 0
In2 In0+ 1.66(7) 2.43(9) 2.00(9) 0 0.36(6) 0
In3 In0+ 1.28(6) 2.22(8) 1.94(6) 0 -.08(6) 0
