
#(C) 2017 by FIZ Karlsruhe - Leibniz Institute for Information Infrastructure.  All rights reserved.
data_103033-ICSD
_database_code_ICSD 103033
_audit_creation_date 2004-10-01
_audit_update_record 2012-02-01
_chemical_name_systematic 'Copper lanthanum (6/1)'
_chemical_formula_structural 'Cu6 La'
_chemical_formula_sum 'Cu6 La1'
_chemical_name_structure_type Cu6La
_exptl_crystal_density_diffrn 8.09
_publ_section_title 'The crystal structure of La Cu6'
loop_
_citation_id
_citation_journal_full
_citation_year
_citation_journal_volume
_citation_page_first
_citation_page_last
_citation_journal_id_ASTM
primary 'Journal of the Physical Society of Japan' 1985 54 3358 3361 JUPSAU
loop_
_publ_author_name
'Asano, H.'
'Umino, M.'
'Hataoka, Y.'
'Shimizu, Y.'
'Onuki, Y.'
'Komatsubara, T.'
'Izumi, F.'
_cell_length_a 5.143
_cell_length_b 10.204
_cell_length_c 8.144
_cell_angle_alpha 90.
_cell_angle_beta 91.49
_cell_angle_gamma 90.
_cell_volume 427.25
_cell_formula_units_Z 4
_symmetry_space_group_name_H-M 'P 1 21/c 1'
_symmetry_Int_Tables_number 14
_refine_ls_R_factor_all 0.033
loop_
_symmetry_equiv_pos_site_id
_symmetry_equiv_pos_as_xyz
1 'x, -y+1/2, z+1/2'
2 '-x, -y, -z'
3 '-x, y+1/2, -z+1/2'
4 'x, y, z'
loop_
_atom_type_symbol
_atom_type_oxidation_number
Cu0+ 0
La0+ 0
loop_
_atom_site_label
_atom_site_type_symbol
_atom_site_symmetry_multiplicity
_atom_site_Wyckoff_symbol
_atom_site_fract_x
_atom_site_fract_y
_atom_site_fract_z
_atom_site_B_iso_or_equiv
_atom_site_occupancy
_atom_site_attached_hydrogens
Cu1 Cu0+ 4 e 0.016 0.192 0.44 . 1. 0
Cu2 Cu0+ 4 e 0.491 0.198 0.434 . 1. 0
Cu3 Cu0+ 4 e 0.246 0.144 0.148 . 1. 0
Cu4 Cu0+ 4 e 0.273 0.748 0.81 . 1. 0
Cu5 Cu0+ 4 e 0.226 0.594 0.54 . 1. 0
Cu6 Cu0+ 4 e 0.246 0.517 0.894 . 1. 0
La1 La0+ 4 e 0.262 0.434 0.248 . 1. 0
#End of TTdata_103033-ICSD