
#(C) 2017 by FIZ Karlsruhe - Leibniz Institute for Information Infrastructure.  All rights reserved.
data_103130-ICSD
_database_code_ICSD 103130
_audit_creation_date 2004-10-01
_chemical_name_systematic 'Copper titanium (1/3)'
_chemical_formula_structural 'Cu Ti3'
_chemical_formula_sum 'Cu1 Ti3'
_chemical_name_structure_type CuInPt2
_exptl_crystal_density_diffrn 5.54
_publ_section_title 'An X-ray study of the phases in the copper-titanium system'
loop_
_citation_id
_citation_journal_full
_citation_year
_citation_journal_volume
_citation_page_first
_citation_page_last
_citation_journal_id_ASTM
primary 'Journal of the Institute of Metals' 1951 79 391 405 JIMEAP
loop_
_publ_author_name
'Karlsson, N.'
_cell_length_a 4.158
_cell_length_b 4.158
_cell_length_c 3.594
_cell_angle_alpha 90.
_cell_angle_beta 90.
_cell_angle_gamma 90.
_cell_volume 62.14
_cell_formula_units_Z 1
_symmetry_space_group_name_H-M 'P 4/m m m'
_symmetry_Int_Tables_number 123
_refine_ls_R_factor_all 0.05
loop_
_symmetry_equiv_pos_site_id
_symmetry_equiv_pos_as_xyz
1 'y, x, -z'
2 '-y, -x, -z'
3 '-y, x, -z'
4 'y, -x, -z'
5 '-x, y, -z'
6 'x, -y, -z'
7 'x, y, -z'
8 '-x, -y, -z'
9 '-y, -x, z'
10 'y, x, z'
11 'y, -x, z'
12 '-y, x, z'
13 'x, -y, z'
14 '-x, y, z'
15 '-x, -y, z'
16 'x, y, z'
loop_
_atom_type_symbol
_atom_type_oxidation_number
Cu0+ 0
Ti0+ 0
loop_
_atom_site_label
_atom_site_type_symbol
_atom_site_symmetry_multiplicity
_atom_site_Wyckoff_symbol
_atom_site_fract_x
_atom_site_fract_y
_atom_site_fract_z
_atom_site_B_iso_or_equiv
_atom_site_occupancy
_atom_site_attached_hydrogens
Cu1 Cu0+ 1 a 0 0 0 . 1. 0
Ti1 Ti0+ 1 c 0.5 0.5 0 . 1. 0
Ti2 Ti0+ 2 e 0 0.5 0.5 . 1. 0
#End of TTdata_103130-ICSD