
#(C) 2017 by FIZ Karlsruhe - Leibniz Institute for Information Infrastructure.  All rights reserved.
data_103105-ICSD
_database_code_ICSD 103105
_audit_creation_date 2004-10-01
_audit_update_record 2010-08-01
_chemical_name_systematic 'Copper tin (10/3)'
_chemical_formula_structural 'Cu10 Sn3'
_chemical_formula_sum 'Cu10 Sn3'
_chemical_name_structure_type Cu10Sn3
_exptl_crystal_density_diffrn 9.03
_publ_section_title 'Kristallstruktur von Cu10 Sn3 (m)'
loop_
_citation_id
_citation_journal_full
_citation_year
_citation_journal_volume
_citation_page_first
_citation_page_last
_citation_journal_id_ASTM
primary 'Monatshefte fuer Chemie' 1971 102 1689 1698 MOCHAP
loop_
_publ_author_name
'Lenz, J.'
'Schubert, K.'
_cell_length_a 7.313
_cell_length_b 7.313
_cell_length_c 7.87
_cell_angle_alpha 90.
_cell_angle_beta 90.
_cell_angle_gamma 120.
_cell_volume 364.5
_cell_formula_units_Z 2
_symmetry_space_group_name_H-M 'P 63/m'
_symmetry_Int_Tables_number 176
_refine_ls_R_factor_all 0.19
loop_
_symmetry_equiv_pos_site_id
_symmetry_equiv_pos_as_xyz
1 '-x+y, -x, -z+1/2'
2 '-y, x-y, -z+1/2'
3 'x, y, -z+1/2'
4 'x-y, x, -z'
5 'y, -x+y, -z'
6 '-x, -y, -z'
7 'x-y, x, z+1/2'
8 'y, -x+y, z+1/2'
9 '-x, -y, z+1/2'
10 '-x+y, -x, z'
11 '-y, x-y, z'
12 'x, y, z'
loop_
_atom_type_symbol
_atom_type_oxidation_number
Cu0+ 0
Sn0+ 0
loop_
_atom_site_label
_atom_site_type_symbol
_atom_site_symmetry_multiplicity
_atom_site_Wyckoff_symbol
_atom_site_fract_x
_atom_site_fract_y
_atom_site_fract_z
_atom_site_B_iso_or_equiv
_atom_site_occupancy
_atom_site_attached_hydrogens
Cu1 Cu0+ 2 b 0 0 0 . 1. 0
Cu2 Cu0+ 2 d 0.3333 0.6667 0.75 . 1. 0
Cu3 Cu0+ 4 f 0.3333 0.6667 0.093 . 1. 0
Cu4 Cu0+ 12 i 0.666 0.031 0.08 . 1. 0
Sn1 Sn0+ 6 h 0.305 0.987 0.25 . 1. 0
#End of TTdata_103105-ICSD