
#(C) 2017 by FIZ Karlsruhe - Leibniz Institute for Information Infrastructure.  All rights reserved.
data_103465-ICSD
_database_code_ICSD 103465
_audit_creation_date 2004-10-01
_audit_update_record 2011-08-01
_chemical_name_systematic 'Iron gallium scandium (6/6/1)'
_chemical_formula_structural 'Fe6 Ga6 Sc'
_chemical_formula_sum 'Fe6 Ga6 Sc1'
_chemical_name_structure_type Fe6Ga6Sc
_exptl_crystal_density_diffrn 7.29
_publ_section_title

;
Crystal structure of the compound Sc Fe6 Ga6, their analogues and new
representatives of the structure types Th Mn12 and Th2 Zn17
;
loop_
_citation_id
_citation_journal_full
_citation_year
_citation_journal_volume
_citation_page_first
_citation_page_last
_citation_journal_id_ASTM
primary

;
Dopovidi Akademii Nauk Ukrains'koi RSR, Seriya B: Geologichni, Khimichni ta
Biologichni Nauki
; 1982 1982 31 34 DANND6
loop_
_publ_author_name
'Belyavina, N.N.'
'Markiv, V.Ya.'
_cell_length_a 8.431
_cell_length_b 8.613
_cell_length_c 5.009
_cell_angle_alpha 90.
_cell_angle_beta 90.
_cell_angle_gamma 90.
_cell_volume 363.73
_cell_formula_units_Z 2
_symmetry_space_group_name_H-M 'I m m m'
_symmetry_Int_Tables_number 71
_refine_ls_R_factor_all 0.121
loop_
_symmetry_equiv_pos_site_id
_symmetry_equiv_pos_as_xyz
1 'x, y, -z'
2 'x, -y, z'
3 '-x, y, z'
4 '-x, -y, -z'
5 '-x, -y, z'
6 '-x, y, -z'
7 'x, -y, -z'
8 'x, y, z'
9 'x+1/2, y+1/2, -z+1/2'
10 'x+1/2, -y+1/2, z+1/2'
11 '-x+1/2, y+1/2, z+1/2'
12 '-x+1/2, -y+1/2, -z+1/2'
13 '-x+1/2, -y+1/2, z+1/2'
14 '-x+1/2, y+1/2, -z+1/2'
15 'x+1/2, -y+1/2, -z+1/2'
16 'x+1/2, y+1/2, z+1/2'
loop_
_atom_type_symbol
_atom_type_oxidation_number
Fe0+ 0
Ga0+ 0
Sc0+ 0
loop_
_atom_site_label
_atom_site_type_symbol
_atom_site_symmetry_multiplicity
_atom_site_Wyckoff_symbol
_atom_site_fract_x
_atom_site_fract_y
_atom_site_fract_z
_atom_site_B_iso_or_equiv
_atom_site_occupancy
_atom_site_attached_hydrogens
Fe1 Fe0+ 4 f 0.257 0.5 0 -.54 1. 0
Fe2 Fe0+ 8 k 0.25 0.25 0.25 3.19 1. 0
Ga1 Ga0+ 4 e 0.336 0 0 0.77 1. 0
Ga2 Ga0+ 4 g 0 0.345 0 -.17 1. 0
Ga3 Ga0+ 4 h 0 0.835 0.5 0.75 1. 0
Sc1 Sc0+ 2 a 0 0 0 -.99 1. 0
#End of TTdata_103465-ICSD