
#(C) 2017 by FIZ Karlsruhe - Leibniz Institute for Information Infrastructure.  All rights reserved.
data_1034-ICSD
_database_code_ICSD 1034
_audit_creation_date 1980-01-01
_audit_update_record 2012-08-01
_chemical_name_systematic 'Rubidium phyllo-dithiotriargentate'
_chemical_formula_structural 'Rb (Ag3 S2)'
_chemical_formula_sum 'Ag3 Rb1 S2'
_chemical_name_structure_type Ag3CsS2
_exptl_crystal_density_diffrn 5.68
_publ_section_title 'Ueber die Struktur von Cs Ag3 S2 und Rb Ag3 S2'
loop_
_citation_id
_citation_journal_full
_citation_year
_citation_journal_volume
_citation_page_first
_citation_page_last
_citation_journal_id_ASTM
primary 'Zeitschrift fuer Anorganische und Allgemeine Chemie (1950) (DE)' 1977
430 61 65 ZAACAB
loop_
_publ_author_name
'Burschka, C.'
'Bronger, W.'
_cell_length_a 16.130(20)
_cell_length_b 4.306(5)
_cell_length_c 8.77(1)
_cell_angle_alpha 90.
_cell_angle_beta 114.6(1)
_cell_angle_gamma 90.
_cell_volume 553.84
_cell_formula_units_Z 4
_symmetry_space_group_name_H-M 'C 1 2/m 1'
_symmetry_Int_Tables_number 12
_refine_ls_R_factor_all 0.17
loop_
_symmetry_equiv_pos_site_id
_symmetry_equiv_pos_as_xyz
1 '-x, y, -z'
2 '-x, -y, -z'
3 'x, -y, z'
4 'x, y, z'
5 '-x+1/2, y+1/2, -z'
6 '-x+1/2, -y+1/2, -z'
7 'x+1/2, -y+1/2, z'
8 'x+1/2, y+1/2, z'
loop_
_atom_type_symbol
_atom_type_oxidation_number
Rb1+ 1
Ag1+ 1
S2- -2
loop_
_atom_site_label
_atom_site_type_symbol
_atom_site_symmetry_multiplicity
_atom_site_Wyckoff_symbol
_atom_site_fract_x
_atom_site_fract_y
_atom_site_fract_z
_atom_site_B_iso_or_equiv
_atom_site_occupancy
_atom_site_attached_hydrogens
Rb1 Rb1+ 4 i 0.134 0 0.044(1) 0.1 1. 0
Ag1 Ag1+ 4 i 0.598 0 0.654(1) 0.1 1. 0
Ag2 Ag1+ 4 i 0.688 0 0.421(1) 0.1 1. 0
Ag3 Ag1+ 4 i 0.056 0 0.397(1) 0.1 1. 0
S1 S2- 4 i 0.198(1) 0 0.698(2) 0.1 1. 0
S2 S2- 4 i 0.517(1) 0 0.224(2) 0.1 1. 0
#End of TTdata_1034-ICSD