
#(C) 2017 by FIZ Karlsruhe - Leibniz Institute for Information Infrastructure.  All rights reserved.
data_103789-ICSD
_database_code_ICSD 103789
_audit_creation_date 2004-10-01
_audit_update_record 2016-02-01
_chemical_name_systematic 'Gallium magnesium (1/1)'
_chemical_formula_structural 'Ga Mg'
_chemical_formula_sum 'Ga1 Mg1'
_chemical_name_structure_type LiSi
_exptl_crystal_density_diffrn 4.07
_publ_section_title 'Kristallstruktur einiger Mg-B(3)-Phasen'
loop_
_citation_id
_citation_journal_full
_citation_year
_citation_journal_volume
_citation_page_first
_citation_page_last
_citation_journal_id_ASTM
primary 'Zeitschrift fuer Metallkunde' 1963 54 422 429 ZEMTAE
loop_
_publ_author_name
'Schubert, K.'
'Gauzzi, F.'
'Frank, K.'
_cell_length_a 10.53
_cell_length_b 10.53
_cell_length_c 5.53
_cell_angle_alpha 90.
_cell_angle_beta 90.
_cell_angle_gamma 90.
_cell_volume 613.17
_cell_formula_units_Z 16
_symmetry_space_group_name_H-M 'I 41/a S'
_symmetry_Int_Tables_number 88
loop_
_symmetry_equiv_pos_site_id
_symmetry_equiv_pos_as_xyz
1 'y, -x+1/2, z+1/4'
2 '-y, x+1/2, z+1/4'
3 'y, -x, -z'
4 '-y, x, -z'
5 '-x, -y+1/2, -z+1/4'
6 'x, y+1/2, -z+1/4'
7 '-x, -y, z'
8 'x, y, z'
9 'y+1/2, -x, z+3/4'
10 '-y+1/2, x, z+3/4'
11 'y+1/2, -x+1/2, -z+1/2'
12 '-y+1/2, x+1/2, -z+1/2'
13 '-x+1/2, -y, -z+3/4'
14 'x+1/2, y, -z+3/4'
15 '-x+1/2, -y+1/2, z+1/2'
16 'x+1/2, y+1/2, z+1/2'
loop_
_atom_type_symbol
_atom_type_oxidation_number
Ga0+ 0
Mg0+ 0
loop_
_atom_site_label
_atom_site_type_symbol
_atom_site_symmetry_multiplicity
_atom_site_Wyckoff_symbol
_atom_site_fract_x
_atom_site_fract_y
_atom_site_fract_z
_atom_site_B_iso_or_equiv
_atom_site_occupancy
_atom_site_attached_hydrogens
Ga1 Ga0+ 16 f 0.106 0.198 0.754 . 1. 0
Mg1 Mg0+ 16 f 0.07 0.124 0.254 . 1. 0
#End of TTdata_103789-ICSD