
data_103790-ICSD
_database_code_ICSD 103790
_audit_creation_date 2004-10-01
_audit_update_record 2010-02-01
_chemical_name_systematic 'Gallium magnesium (1/2)'
_chemical_formula_structural 'Ga Mg2'
_chemical_formula_sum 'Ga1 Mg2'
_chemical_name_structure_type Mg2Ga
_exptl_crystal_density_diffrn 3.25
_cell_length_a 7.794(2)
_cell_length_b 7.794
_cell_length_c 6.893(1)
_cell_angle_alpha 90.
_cell_angle_beta 90.
_cell_angle_gamma 120.
_cell_volume 362.63
_cell_formula_units_Z 6
_symmetry_space_group_name_H-M 'P -6 2 c'
_symmetry_Int_Tables_number 190
_refine_ls_R_factor_all 0.15
loop_
_symmetry_equiv_pos_site_id
_symmetry_equiv_pos_as_xyz
1 '-x, -x+y, -z'
2 'x-y, -y, -z'
3 'y, x, -z'
4 '-x, -x+y, z+1/2'
5 'x-y, -y, z+1/2'
6 'y, x, z+1/2'
7 '-x+y, -x, -z+1/2'
8 '-y, x-y, -z+1/2'
9 'x, y, -z+1/2'
10 '-x+y, -x, z'
11 '-y, x-y, z'
12 'x, y, z'
loop_
_atom_type_symbol
_atom_type_oxidation_number
Ga0+ 0
Mg0+ 0
loop_
_atom_site_label
_atom_site_type_symbol
_atom_site_symmetry_multiplicity
_atom_site_Wyckoff_symbol
_atom_site_fract_x
_atom_site_fract_y
_atom_site_fract_z
_atom_site_B_iso_or_equiv
_atom_site_occupancy
_atom_site_attached_hydrogens
Ga1 Ga0+ 2 b 0 0 0.25 . 1. 0
Ga2 Ga0+ 4 f 0.3333 0.6667 0.038 . 1. 0
Mg1 Mg0+ 6 g 0.289 0 0 . 1. 0
Mg2 Mg0+ 6 h 0.62 0.019 0.25 . 1. 0
