
#(C) 2017 by FIZ Karlsruhe - Leibniz Institute for Information Infrastructure.  All rights reserved.
data_103794-ICSD
_database_code_ICSD 103794
_audit_creation_date 2008-07-07
_audit_update_record 2017-08-01
_chemical_name_systematic 'Gallium magnesium (2/5)'
_chemical_formula_structural 'Ga2 Mg5'
_chemical_formula_sum 'Ga2 Mg5'
_chemical_name_structure_type Ga2Mg5
_exptl_crystal_density_diffrn 2.99
_publ_section_title 'Einige Strukturdaten metallischer Phasen (8)'
loop_
_citation_id
_citation_journal_full
_citation_year
_citation_journal_volume
_citation_page_first
_citation_page_last
_citation_journal_id_ASTM
primary Naturwissenschaften 1963 50 41 41 NATWAY
loop_
_publ_author_name
'Schubert, K.'
'Frank, K.'
'Gohle, R.'
'Maldonado, A.'
'Meissner, H.G.'
'Raman, A.'
'Rossteutscher, W.'
_cell_length_a 13.708
_cell_length_b 7.017
_cell_length_c 6.02
_cell_angle_alpha 90.
_cell_angle_beta 90.
_cell_angle_gamma 90.
_cell_volume 579.06
_cell_formula_units_Z 4
_symmetry_space_group_name_H-M 'I b a m'
_symmetry_Int_Tables_number 72
loop_
_symmetry_equiv_pos_site_id
_symmetry_equiv_pos_as_xyz
1 '-x, y, z+1/2'
2 'x, -y, z+1/2'
3 'x, y, -z'
4 '-x, -y, -z'
5 'x, -y, -z+1/2'
6 '-x, y, -z+1/2'
7 '-x, -y, z'
8 'x, y, z'
9 '-x+1/2, y+1/2, z'
10 'x+1/2, -y+1/2, z'
11 'x+1/2, y+1/2, -z+1/2'
12 '-x+1/2, -y+1/2, -z+1/2'
13 'x+1/2, -y+1/2, -z'
14 '-x+1/2, y+1/2, -z'
15 '-x+1/2, -y+1/2, z+1/2'
16 'x+1/2, y+1/2, z+1/2'
loop_
_atom_type_symbol
_atom_type_oxidation_number
Ga0+ 0
Mg0+ 0
loop_
_atom_site_label
_atom_site_type_symbol
_atom_site_symmetry_multiplicity
_atom_site_Wyckoff_symbol
_atom_site_fract_x
_atom_site_fract_y
_atom_site_fract_z
_atom_site_B_iso_or_equiv
_atom_site_occupancy
_atom_site_attached_hydrogens
Ga1 Ga0+ 8 j 0.122 0.755 0 . 1. 0
Mg1 Mg0+ 4 b 0.5 0 0.25 . 1. 0
Mg2 Mg0+ 8 f 0.26 0 0.25 . 1. 0
Mg3 Mg0+ 8 j 0.077 0.155 0 . 1. 0
#End of TTdata_103794-ICSD