
#(C) 2017 by FIZ Karlsruhe - Leibniz Institute for Information Infrastructure.  All rights reserved.
data_103726-ICSD
_database_code_ICSD 103726
_audit_creation_date 2004-10-01
_audit_update_record 2011-08-01
_chemical_name_systematic 'Gallium hafnium (1/1)'
_chemical_formula_structural 'Ga Hf'
_chemical_formula_sum 'Ga1 Hf1'
_chemical_name_structure_type ThTl
_exptl_crystal_density_diffrn 11.23
_publ_section_title

;
Crystal structure of the compound Hf Ga, its analogues and new representatives
of the structure type Hf3 Cr2 Si4
;
loop_
_citation_id
_citation_journal_full
_citation_year
_citation_journal_volume
_citation_page_first
_citation_page_last
_citation_journal_id_ASTM
primary

;
Dopovidi Akademii Nauk Ukrains'koi RSR, Seriya B: Geologichni, Khimichni ta
Biologichni Nauki
; 1986 1986 44 48 DANND6
loop_
_publ_author_name
'Markiv, V.Ya.'
'Belyavina, N.N.'
_cell_length_a 9.171
_cell_length_b 8.503
_cell_length_c 5.648
_cell_angle_alpha 90.
_cell_angle_beta 90.
_cell_angle_gamma 90.
_cell_volume 440.44
_cell_formula_units_Z 12
_symmetry_space_group_name_H-M 'P b c m'
_symmetry_Int_Tables_number 57
_refine_ls_R_factor_all 0.055
loop_
_symmetry_equiv_pos_site_id
_symmetry_equiv_pos_as_xyz
1 'x, -y+1/2, z+1/2'
2 '-x, y+1/2, z'
3 'x, y, -z+1/2'
4 '-x, -y, -z'
5 '-x, y+1/2, -z+1/2'
6 'x, -y+1/2, -z'
7 '-x, -y, z+1/2'
8 'x, y, z'
loop_
_atom_type_symbol
_atom_type_oxidation_number
Ga0+ 0
Hf0+ 0
loop_
_atom_site_label
_atom_site_type_symbol
_atom_site_symmetry_multiplicity
_atom_site_Wyckoff_symbol
_atom_site_fract_x
_atom_site_fract_y
_atom_site_fract_z
_atom_site_B_iso_or_equiv
_atom_site_occupancy
_atom_site_attached_hydrogens
Ga1 Ga0+ 4 c 0.556 0.25 0 -.84 1. 0
Ga2 Ga0+ 4 d 0.077 0.963 0.25 -.64 1. 0
Ga3 Ga0+ 4 d 0.659 0.897 0.25 -.21 1. 0
Hf1 Hf0+ 4 c 0.112 0.25 0 0.5 1. 0
Hf2 Hf0+ 4 d 0.626 0.527 0.25 1.11 1. 0
Hf3 Hf0+ 4 d 0.1918 0.6407 0.25 1.3 1. 0
#End of TTdata_103726-ICSD