
#(C) 2017 by FIZ Karlsruhe - Leibniz Institute for Information Infrastructure.  All rights reserved.
data_103838-ICSD
_database_code_ICSD 103838
_audit_creation_date 2004-10-01
_audit_update_record 2017-08-01
_chemical_name_systematic 'Gallium niobium (13/5)'
_chemical_formula_structural 'Ga13 Nb5'
_chemical_formula_sum 'Ga13 Nb5'
_chemical_name_structure_type Ga13Nb5
_exptl_crystal_density_diffrn 7.91
_publ_section_title

;
Zum Aufbau einiger zu T(5)-Ga homologer und quasihomologer Systeme. I. Die
System Vanadium-Gallium, Niob-Gallium und Tantal-Gallium und die Struktur von
Ti6 Sn5(h)
;
loop_
_citation_id
_citation_journal_full
_citation_year
_citation_journal_volume
_citation_page_first
_citation_page_last
_citation_journal_id_ASTM
primary 'Zeitschrift fuer Metallkunde' 1965 56 475 484 ZEMTAE
loop_
_publ_author_name
'Meissner, Hans-Georg'
'Schubert, Konrad'
_cell_length_a 3.778
_cell_length_b 40.335
_cell_length_c 3.778
_cell_angle_alpha 90.
_cell_angle_beta 90.
_cell_angle_gamma 90.
_cell_volume 575.71
_cell_formula_units_Z 2
_symmetry_space_group_name_H-M 'C m m m'
_symmetry_Int_Tables_number 65
loop_
_symmetry_equiv_pos_site_id
_symmetry_equiv_pos_as_xyz
1 'x, -y, z'
2 '-x, y, z'
3 'x, y, -z'
4 '-x, -y, -z'
5 '-x, y, -z'
6 'x, -y, -z'
7 '-x, -y, z'
8 'x, y, z'
9 'x+1/2, -y+1/2, z'
10 '-x+1/2, y+1/2, z'
11 'x+1/2, y+1/2, -z'
12 '-x+1/2, -y+1/2, -z'
13 '-x+1/2, y+1/2, -z'
14 'x+1/2, -y+1/2, -z'
15 '-x+1/2, -y+1/2, z'
16 'x+1/2, y+1/2, z'
loop_
_atom_type_symbol
_atom_type_oxidation_number
Ga0+ 0
Nb0+ 0
loop_
_atom_site_label
_atom_site_type_symbol
_atom_site_symmetry_multiplicity
_atom_site_Wyckoff_symbol
_atom_site_fract_x
_atom_site_fract_y
_atom_site_fract_z
_atom_site_B_iso_or_equiv
_atom_site_occupancy
_atom_site_attached_hydrogens
Ga1 Ga0+ 2 d 0 0 0.5 . 1. 0
Ga2 Ga0+ 4 i 0 0.055 0 . 1. 0
Ga3 Ga0+ 4 i 0 0.389 0 . 1. 0
Ga4 Ga0+ 4 i 0 0.166 0 . 1. 0
Ga5 Ga0+ 4 j 0 0.445 0.5 . 1. 0
Ga6 Ga0+ 4 j 0 0.335 0.5 . 1. 0
Ga7 Ga0+ 4 j 0 0.226 0.5 . 1. 0
Nb1 Nb0+ 2 b 0.5 0 0 . 1. 0
Nb2 Nb0+ 4 i 0 0.2825 0 . 1. 0
Nb3 Nb0+ 4 j 0 0.1095 0.5 . 1. 0
#End of TTdata_103838-ICSD