
#(C) 2017 by FIZ Karlsruhe - Leibniz Institute for Information Infrastructure.  All rights reserved.
data_103895-ICSD
_database_code_ICSD 103895
_audit_creation_date 2004-10-01
_chemical_name_systematic 'Gallium nickel yttrium (2/1/1)'
_chemical_formula_structural 'Ga2 Ni Y'
_chemical_formula_sum 'Ga2 Ni1 Y1'
_chemical_name_structure_type Al2CuMg
_exptl_crystal_density_diffrn 6.94
_publ_section_title

;
Intermetallic compounds R Ga2 Ni and R Ga4 Ni in (Y, Sm, Gd, Tb, Ho, Er, Tm,
Yb, Lu) - Ga - Ni systems
;
loop_
_citation_id
_citation_journal_full
_citation_year
_citation_journal_volume
_citation_page_first
_citation_page_last
_citation_journal_id_ASTM
primary 'Izvestiya Akademii Nauk SSSR, Metally' 1981 1981 228 234 IZNMAQ
loop_
_publ_author_name
'Yarmolyuk, Ya.P.'
'Grin', Yu.'
_cell_length_a 4.131(5)
_cell_length_b 10.05(1)
_cell_length_c 6.620(7)
_cell_angle_alpha 90.
_cell_angle_beta 90.
_cell_angle_gamma 90.
_cell_volume 274.84
_cell_formula_units_Z 4
_symmetry_space_group_name_H-M 'C m c m'
_symmetry_Int_Tables_number 63
_refine_ls_R_factor_all 0.122
loop_
_symmetry_equiv_pos_site_id
_symmetry_equiv_pos_as_xyz
1 '-x, y, -z+1/2'
2 '-x, -y, z+1/2'
3 '-x, y, z'
4 '-x, -y, -z'
5 'x, -y, z+1/2'
6 'x, y, -z+1/2'
7 'x, -y, -z'
8 'x, y, z'
9 '-x+1/2, y+1/2, -z+1/2'
10 '-x+1/2, -y+1/2, z+1/2'
11 '-x+1/2, y+1/2, z'
12 '-x+1/2, -y+1/2, -z'
13 'x+1/2, -y+1/2, z+1/2'
14 'x+1/2, y+1/2, -z+1/2'
15 'x+1/2, -y+1/2, -z'
16 'x+1/2, y+1/2, z'
loop_
_atom_type_symbol
_atom_type_oxidation_number
Ga0+ 0
Ni0+ 0
Y0+ 0
loop_
_atom_site_label
_atom_site_type_symbol
_atom_site_symmetry_multiplicity
_atom_site_Wyckoff_symbol
_atom_site_fract_x
_atom_site_fract_y
_atom_site_fract_z
_atom_site_B_iso_or_equiv
_atom_site_occupancy
_atom_site_attached_hydrogens
Ga1 Ga0+ 8 f 0 0.356 0.056 1.6(8) 1. 0
Ni1 Ni0+ 4 c 0 0.791 0.25 3.0(11) 1. 0
Y1 Y0+ 4 c 0 0.072 0.25 1.0(7) 1. 0
#End of TTdata_103895-ICSD