
#(C) 2017 by FIZ Karlsruhe - Leibniz Institute for Information Infrastructure.  All rights reserved.
data_103911-ICSD
_database_code_ICSD 103911
_audit_creation_date 2004-10-01
_audit_update_record 2007-04-01
_chemical_name_systematic 'Gallium palladium zinc (4/7/3)'
_chemical_formula_structural 'Ga4 Pd7 Zn3'
_chemical_formula_sum 'Ga4 Pd7 Zn3'
_exptl_crystal_density_diffrn 10.05
_publ_section_title 'Ueber die Mischung P Zn - Pd Ga'
loop_
_citation_id
_citation_journal_full
_citation_year
_citation_journal_volume
_citation_page_first
_citation_page_last
_citation_journal_id_ASTM
primary 'Journal of the Less-Common Metals' 1973 32 199 206 JCOMAH
loop_
_publ_author_name
'Subrahmanyam, A.V.'
'Schubert, K.'
_cell_length_a 11.531(2)
_cell_length_b 11.531
_cell_length_c 5.249(1)
_cell_angle_alpha 90.
_cell_angle_beta 90.
_cell_angle_gamma 120.
_cell_volume 604.42
_cell_formula_units_Z 3
_symmetry_space_group_name_H-M 'R 3 H'
_symmetry_Int_Tables_number 146
_refine_ls_R_factor_all 0.23
loop_
_symmetry_equiv_pos_site_id
_symmetry_equiv_pos_as_xyz
1 '-x+y, -x, z'
2 '-y, x-y, z'
3 'x, y, z'
4 '-x+y+2/3, -x+1/3, z+1/3'
5 '-y+2/3, x-y+1/3, z+1/3'
6 'x+2/3, y+1/3, z+1/3'
7 '-x+y+1/3, -x+2/3, z+2/3'
8 '-y+1/3, x-y+2/3, z+2/3'
9 'x+1/3, y+2/3, z+2/3'
loop_
_atom_type_symbol
_atom_type_oxidation_number
Ga0+ 0
Pd0+ 0
Zn0+ 0
loop_
_atom_site_label
_atom_site_type_symbol
_atom_site_symmetry_multiplicity
_atom_site_Wyckoff_symbol
_atom_site_fract_x
_atom_site_fract_y
_atom_site_fract_z
_atom_site_B_iso_or_equiv
_atom_site_occupancy
_atom_site_attached_hydrogens
Ga1 Ga0+ 3 a 0 0 0.056 1.34 1. 0
Ga2 Ga0+ 9 b 0.469 0.119 0.998 1.47 1. 0
Pd1 Pd0+ 3 a 0 0 0.54 0.89 1. 0
Pd2 Pd0+ 9 b 0.694 0.129 0.157 0.57 1. 0
Pd3 Pd0+ 9 b 0.305 0.857 0.831 0.48 1. 0
Zn1 Zn0+ 9 b 0.87 0.572 0.669 0.58 1. 0
#End of TTdata_103911-ICSD