
#(C) 2017 by FIZ Karlsruhe - Leibniz Institute for Information Infrastructure.  All rights reserved.
data_103946-ICSD
_database_code_ICSD 103946
_audit_creation_date 2004-10-01
_chemical_name_systematic 'Gallium rubidium (7/1)'
_chemical_formula_structural 'Ga7 Rb'
_chemical_formula_sum 'Ga7 Rb1'
_exptl_crystal_density_diffrn 5.3
_publ_section_title

;
Synthesis and structure determination of the new intermetallic compound Rb Ga7
;
loop_
_citation_id
_citation_journal_full
_citation_year
_citation_journal_volume
_citation_page_first
_citation_page_last
_citation_journal_id_ASTM
primary 'Acta Crystallographica B (24,1968-38,1982)' 1981 37 2060 2062 ACBCAR
loop_
_publ_author_name
'Belin, C.'
_cell_length_a 11.432(5)
_cell_length_b 6.603(2)
_cell_length_c 10.259(3)
_cell_angle_alpha 90.
_cell_angle_beta 111.85
_cell_angle_gamma 90.
_cell_volume 718.77
_cell_formula_units_Z 4
_symmetry_space_group_name_H-M 'C 1 2/m 1'
_symmetry_Int_Tables_number 12
_refine_ls_R_factor_all 0.058
loop_
_symmetry_equiv_pos_site_id
_symmetry_equiv_pos_as_xyz
1 '-x, y, -z'
2 '-x, -y, -z'
3 'x, -y, z'
4 'x, y, z'
5 '-x+1/2, y+1/2, -z'
6 '-x+1/2, -y+1/2, -z'
7 'x+1/2, -y+1/2, z'
8 'x+1/2, y+1/2, z'
loop_
_atom_type_symbol
_atom_type_oxidation_number
Ga0+ 0
Rb0+ 0
loop_
_atom_site_label
_atom_site_type_symbol
_atom_site_symmetry_multiplicity
_atom_site_Wyckoff_symbol
_atom_site_fract_x
_atom_site_fract_y
_atom_site_fract_z
_atom_site_B_iso_or_equiv
_atom_site_occupancy
_atom_site_attached_hydrogens
Ga1 Ga0+ 4 i 0.1823(4) 0 0.4438(4) 1.37(8) 1. 0
Ga2 Ga0+ 4 i 0.2169(4) 0 0.7321(4) 0.84(7) 1. 0
Ga3 Ga0+ 4 i 0.4561(4) 0 0.8679(4) 0.73(7) 1. 0
Ga4 Ga0+ 8 j 0.1193(3) 0.3019(5) 0.5561(3) 1.35(6) 1. 0
Ga5 Ga0+ 8 j 0.9927(2) 0.7905(4) 0.2684(2) 0.82(5) 1. 0
Rb1 Rb0+ 4 i 0.1949(4) 0 0.0842(4) 1.71(7) 1. 0
#End of TTdata_103946-ICSD