
#(C) 2017 by FIZ Karlsruhe - Leibniz Institute for Information Infrastructure.  All rights reserved.
data_103905-ICSD
_database_code_ICSD 103905
_audit_creation_date 2004-10-01
_audit_update_record 2017-08-01
_chemical_name_systematic 'Gallium palladium (3/5)'
_chemical_formula_structural 'Ga3 Pd5'
_chemical_formula_sum 'Ga3 Pd5'
_chemical_name_structure_type Ge3Rh5
_exptl_crystal_density_diffrn 10.67
_publ_section_title 'Einige strukturelle Ergebnisse an metallischen Phasen III'
loop_
_citation_id
_citation_journal_full
_citation_year
_citation_journal_volume
_citation_page_first
_citation_page_last
_citation_journal_id_ASTM
primary Naturwissenschaften 1958 45 360 361 NATWAY
loop_
_publ_author_name
'Schubert, K.'
'Breimer, H.'
'Gohle, R.'
'Lukas, H.L.'
'Meissner, H.G.'
'Stolz, E.'
_cell_length_a 5.42(1)
_cell_length_b 10.56(1)
_cell_length_c 4.03(1)
_cell_angle_alpha 90.
_cell_angle_beta 90.
_cell_angle_gamma 90.
_cell_volume 230.66
_cell_formula_units_Z 2
_symmetry_space_group_name_H-M 'P b a m'
_symmetry_Int_Tables_number 55
loop_
_symmetry_equiv_pos_site_id
_symmetry_equiv_pos_as_xyz
1 'x+1/2, -y+1/2, z'
2 '-x+1/2, y+1/2, z'
3 'x, y, -z'
4 '-x, -y, -z'
5 '-x+1/2, y+1/2, -z'
6 'x+1/2, -y+1/2, -z'
7 '-x, -y, z'
8 'x, y, z'
loop_
_atom_type_symbol
_atom_type_oxidation_number
Ga0+ 0
Pd0+ 0
loop_
_atom_site_label
_atom_site_type_symbol
_atom_site_symmetry_multiplicity
_atom_site_Wyckoff_symbol
_atom_site_fract_x
_atom_site_fract_y
_atom_site_fract_z
_atom_site_B_iso_or_equiv
_atom_site_occupancy
_atom_site_attached_hydrogens
Ga1 Ga0+ 2 a 0 0 0 . 1. 0
Ga2 Ga0+ 4 h 0.34 0.15 0.5 . 1. 0
Pd1 Pd0+ 2 c 0 0.5 0 . 1. 0
Pd2 Pd0+ 4 g 0.09 0.232 0 . 1. 0
Pd3 Pd0+ 4 h 0.315 0.393 0.5 . 1. 0
#End of TTdata_103905-ICSD