
#(C) 2017 by FIZ Karlsruhe - Leibniz Institute for Information Infrastructure.  All rights reserved.
data_103978-ICSD
_database_code_ICSD 103978
_audit_creation_date 2004-10-01
_chemical_name_systematic 'Gallium tantalum (3/5)'
_chemical_formula_structural 'Ga3 Ta5'
_chemical_formula_sum 'Ga3 Ta5'
_chemical_name_structure_type Mn5Si3
_exptl_crystal_density_diffrn 13.71
_publ_section_title
'Crystal structure of alloys of the system Ta-Ga obtained at high pressure'
loop_
_citation_id
_citation_journal_full
_citation_year
_citation_journal_volume
_citation_page_first
_citation_page_last
_citation_journal_id_ASTM
primary 'Izvestiya Akademii Nauk SSSR, Neorganicheskie Materialy' 1979 15 1210
1213 IVNMAW
loop_
_publ_author_name
'Popova, S.V.'
'Putro, V.G.'
_cell_length_a 7.681
_cell_length_b 7.681
_cell_length_c 5.28
_cell_angle_alpha 90.
_cell_angle_beta 90.
_cell_angle_gamma 120.
_cell_volume 269.77
_cell_formula_units_Z 2
_symmetry_space_group_name_H-M 'P 63/m c m'
_symmetry_Int_Tables_number 193
_refine_ls_R_factor_all 0.18
loop_
_symmetry_equiv_pos_site_id
_symmetry_equiv_pos_as_xyz
1 '-x, -x+y, -z+1/2'
2 'x-y, -y, -z+1/2'
3 'y, x, -z+1/2'
4 '-x+y, -x, -z+1/2'
5 '-y, x-y, -z+1/2'
6 'x, y, -z+1/2'
7 'x, x-y, z+1/2'
8 '-x+y, y, z+1/2'
9 '-y, -x, z+1/2'
10 'x-y, x, z+1/2'
11 'y, -x+y, z+1/2'
12 '-x, -y, z+1/2'
13 'x, x-y, -z'
14 '-x+y, y, -z'
15 '-y, -x, -z'
16 'x-y, x, -z'
17 'y, -x+y, -z'
18 '-x, -y, -z'
19 '-x, -x+y, z'
20 'x-y, -y, z'
21 'y, x, z'
22 '-x+y, -x, z'
23 '-y, x-y, z'
24 'x, y, z'
loop_
_atom_type_symbol
_atom_type_oxidation_number
Ga0+ 0
Ta0+ 0
loop_
_atom_site_label
_atom_site_type_symbol
_atom_site_symmetry_multiplicity
_atom_site_Wyckoff_symbol
_atom_site_fract_x
_atom_site_fract_y
_atom_site_fract_z
_atom_site_B_iso_or_equiv
_atom_site_occupancy
_atom_site_attached_hydrogens
Ga1 Ga0+ 6 g 0.61 0 0.25 . 1. 0
Ta1 Ta0+ 4 d 0.3333 0.6667 0 . 1. 0
Ta2 Ta0+ 6 g 0.23 0 0.25 . 1. 0
#End of TTdata_103978-ICSD