
#(C) 2017 by FIZ Karlsruhe - Leibniz Institute for Information Infrastructure.  All rights reserved.
data_103908-ICSD
_database_code_ICSD 103908
_audit_creation_date 2004-10-01
_audit_update_record 2017-08-01
_chemical_name_systematic 'Gallium platinum (5/1)'
_chemical_formula_structural 'Ga5 Pd'
_chemical_formula_sum 'Ga5 Pd1'
_chemical_name_structure_type Ga5Pd
_exptl_crystal_density_diffrn 7.27
_publ_section_title

;
Zum Aufbau der Systeme Kobalt-Gallium, Palladium-Gallium, Palladium- Zinn und
verwandter Legierungen
;
loop_
_citation_id
_citation_journal_full
_citation_year
_citation_journal_volume
_citation_page_first
_citation_page_last
_citation_journal_id_ASTM
primary 'Zeitschrift fuer Metallkunde' 1959 50 534 540 ZEMTAE
loop_
_publ_author_name
'Schubert, Konrad'
'Lukas, Hans Leo'
'Meissner, Hans-Georg'
'Bhan, Suray'
_cell_length_a 6.448
_cell_length_b 6.448
_cell_length_c 10.003
_cell_angle_alpha 90.
_cell_angle_beta 90.
_cell_angle_gamma 90.
_cell_volume 415.89
_cell_formula_units_Z 4
_symmetry_space_group_name_H-M 'I 4/m c m'
_symmetry_Int_Tables_number 140
loop_
_symmetry_equiv_pos_site_id
_symmetry_equiv_pos_as_xyz
1 'y, x, -z+1/2'
2 '-y, -x, -z+1/2'
3 '-y, x, -z'
4 'y, -x, -z'
5 'x, -y, -z+1/2'
6 '-x, y, -z+1/2'
7 'x, y, -z'
8 '-x, -y, -z'
9 '-y, -x, z+1/2'
10 'y, x, z+1/2'
11 'y, -x, z'
12 '-y, x, z'
13 '-x, y, z+1/2'
14 'x, -y, z+1/2'
15 '-x, -y, z'
16 'x, y, z'
17 'y+1/2, x+1/2, -z'
18 '-y+1/2, -x+1/2, -z'
19 '-y+1/2, x+1/2, -z+1/2'
20 'y+1/2, -x+1/2, -z+1/2'
21 'x+1/2, -y+1/2, -z'
22 '-x+1/2, y+1/2, -z'
23 'x+1/2, y+1/2, -z+1/2'
24 '-x+1/2, -y+1/2, -z+1/2'
25 '-y+1/2, -x+1/2, z'
26 'y+1/2, x+1/2, z'
27 'y+1/2, -x+1/2, z+1/2'
28 '-y+1/2, x+1/2, z+1/2'
29 '-x+1/2, y+1/2, z'
30 'x+1/2, -y+1/2, z'
31 '-x+1/2, -y+1/2, z+1/2'
32 'x+1/2, y+1/2, z+1/2'
loop_
_atom_type_symbol
_atom_type_oxidation_number
Ga0+ 0
Pd0+ 0
loop_
_atom_site_label
_atom_site_type_symbol
_atom_site_symmetry_multiplicity
_atom_site_Wyckoff_symbol
_atom_site_fract_x
_atom_site_fract_y
_atom_site_fract_z
_atom_site_B_iso_or_equiv
_atom_site_occupancy
_atom_site_attached_hydrogens
Ga1 Ga0+ 4 c 0 0 0 . 1. 0
Ga2 Ga0+ 16 l 0.15 0.65 0.14 . 1. 0
Pd1 Pd0+ 4 a 0 0 0.25 . 1. 0
#End of TTdata_103908-ICSD