
data_10424-ICSD
_database_code_ICSD 10424
_audit_creation_date 1980-01-01
_audit_update_record 2005-10-01
_chemical_name_systematic 'Nickel sulfide (3/2)'
_chemical_formula_structural 'Ni3 S2'
_chemical_formula_sum 'Ni3 S2'
_chemical_name_structure_type Ni3S2
_chemical_name_mineral Heazlewoodite
_exptl_crystal_density_diffrn 5.87
_cell_length_a 4.0821(5)
_cell_length_b 4.0821(5)
_cell_length_c 4.0821(5)
_cell_angle_alpha 89.475(9)
_cell_angle_beta 89.475(9)
_cell_angle_gamma 89.475(9)
_cell_volume 68.01
_cell_formula_units_Z 1
_symmetry_space_group_name_H-M 'R 3 2 R'
_symmetry_Int_Tables_number 155
_refine_ls_R_factor_all 0.045
loop_
_symmetry_equiv_pos_site_id
_symmetry_equiv_pos_as_xyz
1 '-z, -y, -x'
2 'z, x, y'
3 '-x, -z, -y'
4 'y, z, x'
5 '-y, -x, -z'
6 'x, y, z'
loop_
_atom_type_symbol
_atom_type_oxidation_number
Ni0+ 0
S0+ 0
loop_
_atom_site_label
_atom_site_type_symbol
_atom_site_symmetry_multiplicity
_atom_site_Wyckoff_symbol
_atom_site_fract_x
_atom_site_fract_y
_atom_site_fract_z
_atom_site_B_iso_or_equiv
_atom_site_occupancy
_atom_site_attached_hydrogens
Ni1 Ni0+ 3 e 0.5 0.247(2) -.247(2) 1.13(9) 1. 0
S1 S0+ 2 c 0.255(3) 0.255(3) 0.255(3) 0.05(9) 1. 0
