
#(C) 2017 by FIZ Karlsruhe - Leibniz Institute for Information Infrastructure.  All rights reserved.
data_104267-ICSD
_database_code_ICSD 104267
_audit_creation_date 2004-10-01
_audit_update_record 2008-08-01
_chemical_name_systematic 'Hafnium rhodium (3/5)'
_chemical_formula_structural 'Hf3 Rh5'
_chemical_formula_sum 'Hf3 Rh5'
_chemical_name_structure_type Ge3Rh5
_exptl_crystal_density_diffrn 13.58
_publ_section_title 'New A3 B5 phases of the titanium group metals with rhodium'
loop_
_citation_id
_citation_journal_full
_citation_year
_citation_journal_volume
_citation_page_first
_citation_page_last
_citation_journal_id_ASTM
primary 'Transactions of the Metallurgical Society of Aime' 1969 245 1207 1210
TMSAAB
loop_
_publ_author_name
'Giessen, G.C.'
'Wang, R.'
'Grant, N.J.'
_cell_length_a 5.58
_cell_length_b 10.73
_cell_length_c 4.25
_cell_angle_alpha 90.
_cell_angle_beta 90.
_cell_angle_gamma 90.
_cell_volume 254.46
_cell_formula_units_Z 2
_symmetry_space_group_name_H-M 'P b a m'
_symmetry_Int_Tables_number 55
_refine_ls_R_factor_all 0.13
loop_
_symmetry_equiv_pos_site_id
_symmetry_equiv_pos_as_xyz
1 'x+1/2, -y+1/2, z'
2 '-x+1/2, y+1/2, z'
3 'x, y, -z'
4 '-x, -y, -z'
5 '-x+1/2, y+1/2, -z'
6 'x+1/2, -y+1/2, -z'
7 '-x, -y, z'
8 'x, y, z'
loop_
_atom_type_symbol
_atom_type_oxidation_number
Hf0+ 0
Rh0+ 0
loop_
_atom_site_label
_atom_site_type_symbol
_atom_site_symmetry_multiplicity
_atom_site_Wyckoff_symbol
_atom_site_fract_x
_atom_site_fract_y
_atom_site_fract_z
_atom_site_B_iso_or_equiv
_atom_site_occupancy
_atom_site_attached_hydrogens
Hf1 Hf0+ 2 a 0 0 0 . 1. 0
Hf2 Hf0+ 4 h 0.353 0.132 0.5 . 1. 0
Rh1 Rh0+ 2 c 0 0.5 0 . 1. 0
Rh2 Rh0+ 4 g 0.119 0.229 0 . 1. 0
Rh3 Rh0+ 4 h 0.303 0.383 0.5 . 1. 0
#End of TTdata_104267-ICSD