
#(C) 2017 by FIZ Karlsruhe - Leibniz Institute for Information Infrastructure.  All rights reserved.
data_10431-ICSD
_database_code_ICSD 10431
_audit_creation_date 1980-12-31
_audit_update_record 2005-10-01
_chemical_name_systematic 'Indium vanadate - HT'
_chemical_formula_structural 'In (V O4)'
_chemical_formula_sum 'In1 O4 V1'
_chemical_name_structure_type CrVO4
_exptl_crystal_density_diffrn 4.7
_publ_section_title 'Structure du vanadate d'indium: In V O4'
loop_
_citation_id
_citation_journal_full
_citation_year
_citation_journal_volume
_citation_page_first
_citation_page_last
_citation_journal_id_ASTM
primary 'Acta Crystallographica B (24,1968-38,1982)' 1980 36 240 245 ACBCAR
loop_
_publ_author_name
'Touboul, M.'
'Toledano, P.'
_cell_length_a 5.765(4)
_cell_length_b 8.542(5)
_cell_length_c 6.592(4)
_cell_angle_alpha 90.
_cell_angle_beta 90.
_cell_angle_gamma 90.
_cell_volume 324.62
_cell_formula_units_Z 4
_symmetry_space_group_name_H-M 'C m c m'
_symmetry_Int_Tables_number 63
_refine_ls_R_factor_all 0.029
loop_
_symmetry_equiv_pos_site_id
_symmetry_equiv_pos_as_xyz
1 '-x, y, -z+1/2'
2 '-x, -y, z+1/2'
3 '-x, y, z'
4 '-x, -y, -z'
5 'x, -y, z+1/2'
6 'x, y, -z+1/2'
7 'x, -y, -z'
8 'x, y, z'
9 '-x+1/2, y+1/2, -z+1/2'
10 '-x+1/2, -y+1/2, z+1/2'
11 '-x+1/2, y+1/2, z'
12 '-x+1/2, -y+1/2, -z'
13 'x+1/2, -y+1/2, z+1/2'
14 'x+1/2, y+1/2, -z+1/2'
15 'x+1/2, -y+1/2, -z'
16 'x+1/2, y+1/2, z'
loop_
_atom_type_symbol
_atom_type_oxidation_number
In3+ 3
V5+ 5
O2- -2
loop_
_atom_site_label
_atom_site_type_symbol
_atom_site_symmetry_multiplicity
_atom_site_Wyckoff_symbol
_atom_site_fract_x
_atom_site_fract_y
_atom_site_fract_z
_atom_site_B_iso_or_equiv
_atom_site_occupancy
_atom_site_attached_hydrogens
In1 In3+ 4 a 0 0 0 . 1. 0
V1 V5+ 4 c 0 0.36258(6) 0.25 . 1. 0
O1 O2- 8 g 0.2593(3) 0.4787(2) 0.25 . 1. 0
O2 O2- 8 f 0 0.2503(2) 0.0434(3) . 1. 0
loop_
_atom_site_aniso_label
_atom_site_aniso_type_symbol
_atom_site_aniso_beta_11
_atom_site_aniso_beta_22
_atom_site_aniso_beta_33
_atom_site_aniso_beta_12
_atom_site_aniso_beta_13
_atom_site_aniso_beta_23
In1 In3+ 0.00272(5) 0.00168(3) 0.00141(4) 0 0 -.00008(1)
V1 V5+ 0.00148(9) 0.00109(5) 0.00217(7) 0 0 0
O1 O2- 0.0025(3) 0.0026(2) 0.0028(2) -.0008(2) 0 0
O2 O2- 0.0057(4) 0.0020(2) 0.0049(3) 0 0 -.0014(2)
#End of TTdata_10431-ICSD