
#(C) 2017 by FIZ Karlsruhe - Leibniz Institute for Information Infrastructure.  All rights reserved.
data_104328-ICSD
_database_code_ICSD 104328
_audit_creation_date 2004-10-01
_chemical_name_systematic 'Mercury sodium (2/3)'
_chemical_formula_structural 'Hg2 Na3'
_chemical_formula_sum 'Hg2 Na3'
_chemical_name_structure_type Al2Zr3(tP20)
_exptl_crystal_density_diffrn 5.52
_publ_section_title 'The crystal structures of Na Hg2, Na Hg and Na3 Hg2'
loop_
_citation_id
_citation_journal_full
_citation_year
_citation_journal_volume
_citation_page_first
_citation_page_last
_citation_journal_id_ASTM
primary 'Acta Crystallographica (1,1948-23,1967)' 1954 7 277 282 ACCRA9
loop_
_publ_author_name
'Nielson, J.W.'
'Baenziger, N.C.'
_cell_length_a 8.52
_cell_length_b 8.52
_cell_length_c 7.8
_cell_angle_alpha 90.
_cell_angle_beta 90.
_cell_angle_gamma 90.
_cell_volume 566.21
_cell_formula_units_Z 4
_symmetry_space_group_name_H-M 'P 42/m n m'
_symmetry_Int_Tables_number 136
_refine_ls_R_factor_all 0.125
loop_
_symmetry_equiv_pos_site_id
_symmetry_equiv_pos_as_xyz
1 '-y+1/2, x+1/2, -z+1/2'
2 'y+1/2, -x+1/2, -z+1/2'
3 'y, x, -z'
4 '-y, -x, -z'
5 'y+1/2, -x+1/2, z+1/2'
6 '-y+1/2, x+1/2, z+1/2'
7 '-y, -x, z'
8 'y, x, z'
9 'x+1/2, -y+1/2, -z+1/2'
10 '-x+1/2, y+1/2, -z+1/2'
11 'x, y, -z'
12 '-x, -y, -z'
13 '-x+1/2, y+1/2, z+1/2'
14 'x+1/2, -y+1/2, z+1/2'
15 '-x, -y, z'
16 'x, y, z'
loop_
_atom_type_symbol
_atom_type_oxidation_number
Hg0+ 0
Na0+ 0
loop_
_atom_site_label
_atom_site_type_symbol
_atom_site_symmetry_multiplicity
_atom_site_Wyckoff_symbol
_atom_site_fract_x
_atom_site_fract_y
_atom_site_fract_z
_atom_site_B_iso_or_equiv
_atom_site_occupancy
_atom_site_attached_hydrogens
Hg1 Hg0+ 8 j 0.125 0.125 0.19 . 1. 0
Na1 Na0+ 4 c 0 0.5 0 . 1. 0
Na2 Na0+ 4 f 0.368 0.368 0 . 1. 0
Na3 Na0+ 4 g 0.21 0.79 0 . 1. 0
#End of TTdata_104328-ICSD