
#(C) 2017 by FIZ Karlsruhe - Leibniz Institute for Information Infrastructure.  All rights reserved.
data_10454-ICSD
_database_code_ICSD 10454
_audit_creation_date 1980-12-31
_chemical_name_systematic 'Calcium manganese bismuth (1:1:2)'
_chemical_formula_structural 'Bi2 Ca Mn'
_chemical_formula_sum 'Bi2 Ca1 Mn1'
_chemical_name_structure_type ZrCuSiAs-CuHfSi2
_exptl_crystal_density_diffrn 7.59
_publ_section_title 'Zur Darstellung und Struktur von Ca Mn Bi2'
loop_
_citation_id
_citation_journal_full
_citation_year
_citation_journal_volume
_citation_page_first
_citation_page_last
_citation_journal_id_ASTM
primary

;
Zeitschrift fuer Naturforschung, Teil B. Anorganische Chemie, Organische
Chemie (33,1978-41,1986)
; 1980 35 1 3 ZNBAD2
loop_
_publ_author_name
'Brechtel, E.'
'Cordier, G.'
'Schaefer, H.'
_cell_length_a 4.50(1)
_cell_length_b 4.50(1)
_cell_length_c 11.08(2)
_cell_angle_alpha 90.
_cell_angle_beta 90.
_cell_angle_gamma 90.
_cell_volume 224.37
_cell_formula_units_Z 2
_symmetry_space_group_name_H-M 'P 4/n m m S'
_symmetry_Int_Tables_number 129
_refine_ls_R_factor_all 0.117
loop_
_symmetry_equiv_pos_site_id
_symmetry_equiv_pos_as_xyz
1 '-y+1/2, -x+1/2, z'
2 'y+1/2, x+1/2, z'
3 '-y, -x, -z'
4 'y, x, -z'
5 'y+1/2, -x+1/2, z'
6 '-y+1/2, x+1/2, z'
7 'y, -x, -z'
8 '-y, x, -z'
9 'x+1/2, -y+1/2, -z'
10 '-x+1/2, y+1/2, -z'
11 'x, -y, z'
12 '-x, y, z'
13 '-x+1/2, -y+1/2, -z'
14 'x+1/2, y+1/2, -z'
15 '-x, -y, z'
16 'x, y, z'
loop_
_atom_type_symbol
_atom_type_oxidation_number
Ca0+ 0
Mn0+ 0
Bi0+ 0
loop_
_atom_site_label
_atom_site_type_symbol
_atom_site_symmetry_multiplicity
_atom_site_Wyckoff_symbol
_atom_site_fract_x
_atom_site_fract_y
_atom_site_fract_z
_atom_site_B_iso_or_equiv
_atom_site_occupancy
_atom_site_attached_hydrogens
Ca1 Ca0+ 2 c 0 0.5 0.724(3) 0.0146(63) 1. 0
Mn1 Mn0+ 2 a 0 0 0 0.0145(48) 1. 0
Bi1 Bi0+ 2 b 0 0 0.5 0.0148(15) 1. 0
Bi2 Bi0+ 2 c 0 0.5 0.1615(6) 0.0128(14) 1. 0
#End of TTdata_10454-ICSD