
#(C) 2017 by FIZ Karlsruhe - Leibniz Institute for Information Infrastructure.  All rights reserved.
data_104785-ICSD
_database_code_ICSD 104785
_audit_creation_date 2004-10-01
_audit_update_record 2012-08-01
_chemical_name_systematic 'Lithium tin (7/3)'
_chemical_formula_structural 'Li7 Sn3'
_chemical_formula_sum 'Li7 Sn3'
_exptl_crystal_density_diffrn 3.66
_publ_section_title 'Darstellung und Struktur der Phase Li7 Sn3'
loop_
_citation_id
_citation_journal_full
_citation_year
_citation_journal_volume
_citation_page_first
_citation_page_last
_citation_journal_id_ASTM
primary

;
Zeitschrift fuer Naturforschung, Teil B. Anorganische Chemie, Organische
Chemie (2,1947-32,1977)
; 1974 29 304 307 ZENBAX
loop_
_publ_author_name
'Mueller, W.'
_cell_length_a 8.56(1)
_cell_length_b 4.72(1)
_cell_length_c 9.45(1)
_cell_angle_alpha 90.
_cell_angle_beta 105.95
_cell_angle_gamma 90.
_cell_volume 367.11
_cell_formula_units_Z 2
_symmetry_space_group_name_H-M 'P 1 21/m 1'
_symmetry_Int_Tables_number 11
_refine_ls_R_factor_all 0.079
loop_
_symmetry_equiv_pos_site_id
_symmetry_equiv_pos_as_xyz
1 'x, -y+1/2, z'
2 '-x, -y, -z'
3 '-x, y+1/2, -z'
4 'x, y, z'
loop_
_atom_type_symbol
_atom_type_oxidation_number
Li0+ 0
Sn0+ 0
loop_
_atom_site_label
_atom_site_type_symbol
_atom_site_symmetry_multiplicity
_atom_site_Wyckoff_symbol
_atom_site_fract_x
_atom_site_fract_y
_atom_site_fract_z
_atom_site_B_iso_or_equiv
_atom_site_occupancy
_atom_site_attached_hydrogens
Li1 Li0+ 2 e 0.392 0.25 0.732 . 1. 0
Li2 Li0+ 2 e 0.007 0.25 0.134 . 1. 0
Li3 Li0+ 2 e 0.998 0.25 0.622 . 1. 0
Li4 Li0+ 2 e 0.803 0.25 0.312 . 1. 0
Li5 Li0+ 2 e 0.81 0.25 0.821 . 1. 0
Li6 Li0+ 2 e 0.601 0.25 0.533 . 1. 0
Li7 Li0+ 2 e 0.606 0.25 0.021 . 1. 0
Sn1 Sn0+ 2 e 0.3995 0.25 0.2251 . 1. 0
Sn2 Sn0+ 2 e 0.1974 0.25 0.9179 . 1. 0
Sn3 Sn0+ 2 e 0.1979 0.25 0.4318 . 1. 0
#End of TTdata_104785-ICSD