
#(C) 2017 by FIZ Karlsruhe - Leibniz Institute for Information Infrastructure.  All rights reserved.
data_104784-ICSD
_database_code_ICSD 104784
_audit_creation_date 2004-10-01
_chemical_name_systematic 'Lithium tin (7/2)'
_chemical_formula_structural 'Li7 Sn2'
_chemical_formula_sum 'Li7 Sn2'
_chemical_name_structure_type Li7Ge2
_exptl_crystal_density_diffrn 2.96
_publ_section_title 'Die Kristallstruktur der Phase Li7 Sn2'
loop_
_citation_id
_citation_journal_full
_citation_year
_citation_journal_volume
_citation_page_first
_citation_page_last
_citation_journal_id_ASTM
primary

;
Zeitschrift fuer Naturforschung, Teil B. Anorganische Chemie, Organische
Chemie (2,1947-32,1977)
; 1975 30 6 9 ZENBAX
loop_
_publ_author_name
'Frank, U.'
'Mueller, W.'
'Schaefer, H.'
_cell_length_a 9.80(2)
_cell_length_b 13.80(3)
_cell_length_c 4.75(2)
_cell_angle_alpha 90.
_cell_angle_beta 90.
_cell_angle_gamma 90.
_cell_volume 642.39
_cell_formula_units_Z 4
_symmetry_space_group_name_H-M 'C m m m'
_symmetry_Int_Tables_number 65
_refine_ls_R_factor_all 0.054
loop_
_symmetry_equiv_pos_site_id
_symmetry_equiv_pos_as_xyz
1 'x, -y, z'
2 '-x, y, z'
3 'x, y, -z'
4 '-x, -y, -z'
5 '-x, y, -z'
6 'x, -y, -z'
7 '-x, -y, z'
8 'x, y, z'
9 'x+1/2, -y+1/2, z'
10 '-x+1/2, y+1/2, z'
11 'x+1/2, y+1/2, -z'
12 '-x+1/2, -y+1/2, -z'
13 '-x+1/2, y+1/2, -z'
14 'x+1/2, -y+1/2, -z'
15 '-x+1/2, -y+1/2, z'
16 'x+1/2, y+1/2, z'
loop_
_atom_type_symbol
_atom_type_oxidation_number
Li0+ 0
Sn0+ 0
loop_
_atom_site_label
_atom_site_type_symbol
_atom_site_symmetry_multiplicity
_atom_site_Wyckoff_symbol
_atom_site_fract_x
_atom_site_fract_y
_atom_site_fract_z
_atom_site_B_iso_or_equiv
_atom_site_occupancy
_atom_site_attached_hydrogens
Li1 Li0+ 2 a 0 0 0 . 1. 0
Li2 Li0+ 2 c 0.5 0 0.5 . 1. 0
Li3 Li0+ 4 g 0.359 0 0 . 1. 0
Li4 Li0+ 4 j 0 0.179 0.5 . 1. 0
Li5 Li0+ 8 p 0.187 0.154 0 . 1. 0
Li6 Li0+ 8 q 0.349 0.165 0.5 . 1. 0
Sn1 Sn0+ 4 h 0.153 0 0.5 . 1. 0
Sn2 Sn0+ 4 i 0 0.3127 0 . 1. 0
#End of TTdata_104784-ICSD