
#(C) 2017 by FIZ Karlsruhe - Leibniz Institute for Information Infrastructure.  All rights reserved.
data_104786-ICSD
_database_code_ICSD 104786
_audit_creation_date 2004-10-01
_audit_update_record 2014-08-01
_chemical_name_systematic 'Lithium stannide (13/5)'
_chemical_formula_structural 'Li13 Sn5'
_chemical_formula_sum 'Li13 Sn5'
_chemical_name_structure_type Li13Sn5
_exptl_crystal_density_diffrn 3.47
_publ_section_title

;
Darstellung und Struktur der Phase Li13 Sn5 und die strukturelle
Verwandtschaft der Phasen in den Systemen Li-Sn und Li-Pb
;
loop_
_citation_id
_citation_journal_full
_citation_year
_citation_journal_volume
_citation_page_first
_citation_page_last
_citation_journal_id_ASTM
primary

;
Zeitschrift fuer Naturforschung, Teil B. Anorganische Chemie, Organische
Chemie (2,1947-32,1977)
; 1975 30 316 322 ZENBAX
loop_
_publ_author_name
'Frank, U.'
'Mueller, W.'
_cell_length_a 4.70(1)
_cell_length_b 4.70(1)
_cell_length_c 17.12(4)
_cell_angle_alpha 90.
_cell_angle_beta 90.
_cell_angle_gamma 120.
_cell_volume 327.51
_cell_formula_units_Z 1
_symmetry_space_group_name_H-M 'P -3 m 1'
_symmetry_Int_Tables_number 164
_refine_ls_R_factor_all 0.086
loop_
_symmetry_equiv_pos_site_id
_symmetry_equiv_pos_as_xyz
1 'x-y, -y, -z'
2 '-x, -x+y, -z'
3 'y, x, -z'
4 'x-y, x, -z'
5 'y, -x+y, -z'
6 '-x, -y, -z'
7 '-x+y, y, z'
8 'x, x-y, z'
9 '-y, -x, z'
10 '-x+y, -x, z'
11 '-y, x-y, z'
12 'x, y, z'
loop_
_atom_type_symbol
_atom_type_oxidation_number
Li0+ 0
Sn0+ 0
loop_
_atom_site_label
_atom_site_type_symbol
_atom_site_symmetry_multiplicity
_atom_site_Wyckoff_symbol
_atom_site_fract_x
_atom_site_fract_y
_atom_site_fract_z
_atom_site_B_iso_or_equiv
_atom_site_occupancy
_atom_site_attached_hydrogens
Li1 Li0+ 1 b 0 0 0.5 . 1. 0
Li2 Li0+ 2 c 0 0 0.668 . 1. 0
Li3 Li0+ 2 c 0 0 0.836 . 1. 0
Li4 Li0+ 2 d 0.3333 0.6667 0.943 . 1. 0
Li5 Li0+ 2 d 0.3333 0.6667 0.445 . 1. 0
Li6 Li0+ 2 d 0.3333 0.6667 0.284 . 1. 0
Li7 Li0+ 2 d 0.3333 0.6667 0.117 . 1. 0
Sn1 Sn0+ 1 a 0 0 0 . 1. 0
Sn2 Sn0+ 2 d 0.3333 0.6667 0.7764 . 1. 0
Sn3 Sn0+ 2 d 0.3333 0.6667 0.6091 . 1. 0
#End of TTdata_104786-ICSD