
#(C) 2017 by FIZ Karlsruhe - Leibniz Institute for Information Infrastructure.  All rights reserved.
data_104860-ICSD
_database_code_ICSD 104860
_audit_creation_date 2004-10-01
_chemical_name_systematic 'Magnesium rhodium (5/2)'
_chemical_formula_structural 'Mg5 Rh2'
_chemical_formula_sum 'Mg5 Rh2'
_chemical_name_structure_type Hf9Mo4B/Al5Co2
_exptl_crystal_density_diffrn 4.25
_publ_section_title

;
Ricerche sulle leghe dei metalli nobili con gli elementi piu electropositivi.
IV. Le fasi gamma dei sistemi Mg-Rh e Mg-Pd
;
loop_
_citation_id
_citation_journal_full
_citation_year
_citation_journal_volume
_citation_page_first
_citation_page_last
_citation_journal_id_ASTM
primary

;
Atti della Accademia Nazionale dei Lincei, Classe di Scienze Fisiche,
Matematiche e Naturali, Rendiconti, Serie 8 (1, 1946-)
; 1960 29 70 73 AANL8V
loop_
_publ_author_name
'Ferro, R.'
_cell_length_a 8.536
_cell_length_b 8.536
_cell_length_c 8.025
_cell_angle_alpha 90.
_cell_angle_beta 90.
_cell_angle_gamma 120.
_cell_volume 506.39
_cell_formula_units_Z 4
_symmetry_space_group_name_H-M 'P 63/m m c'
_symmetry_Int_Tables_number 194
loop_
_symmetry_equiv_pos_site_id
_symmetry_equiv_pos_as_xyz
1 'x, x-y, -z+1/2'
2 '-x+y, y, -z+1/2'
3 '-y, -x, -z+1/2'
4 '-x+y, -x, -z+1/2'
5 '-y, x-y, -z+1/2'
6 'x, y, -z+1/2'
7 '-x, -x+y, z+1/2'
8 'x-y, -y, z+1/2'
9 'y, x, z+1/2'
10 'x-y, x, z+1/2'
11 'y, -x+y, z+1/2'
12 '-x, -y, z+1/2'
13 '-x, -x+y, -z'
14 'x-y, -y, -z'
15 'y, x, -z'
16 'x-y, x, -z'
17 'y, -x+y, -z'
18 '-x, -y, -z'
19 'x, x-y, z'
20 '-x+y, y, z'
21 '-y, -x, z'
22 '-x+y, -x, z'
23 '-y, x-y, z'
24 'x, y, z'
loop_
_atom_type_symbol
_atom_type_oxidation_number
Mg0+ 0
Rh0+ 0
loop_
_atom_site_label
_atom_site_type_symbol
_atom_site_symmetry_multiplicity
_atom_site_Wyckoff_symbol
_atom_site_fract_x
_atom_site_fract_y
_atom_site_fract_z
_atom_site_B_iso_or_equiv
_atom_site_occupancy
_atom_site_attached_hydrogens
Mg1 Mg0+ 2 a 0 0 0 . 1. 0
Mg2 Mg0+ 6 h 0.467 0.934 0.25 . 1. 0
Mg3 Mg0+ 12 k 0.196 0.392 0.939 . 1. 0
Rh1 Rh0+ 2 d 0.3333 0.6667 0.75 . 1. 0
Rh2 Rh0+ 6 h 0.12 0.24 0.25 . 1. 0
#End of TTdata_104860-ICSD