
#(C) 2017 by FIZ Karlsruhe - Leibniz Institute for Information Infrastructure.  All rights reserved.
data_105047-ICSD
_database_code_ICSD 105047
_audit_creation_date 2004-10-01
_audit_update_record 2012-08-01
_chemical_name_systematic 'Molybdenum nickel (1/4)'
_chemical_formula_structural 'Mo Ni4'
_chemical_formula_sum 'Mo1 Ni4'
_chemical_name_structure_type MoNi4
_exptl_crystal_density_diffrn 9.42
_publ_section_title 'The crystal structure of Ni4 Mo'
loop_
_citation_id
_citation_journal_full
_citation_year
_citation_journal_volume
_citation_page_first
_citation_page_last
_citation_journal_id_ASTM
primary 'Journal of Applied Physics' 1944 12 315 317 JAPIAU
loop_
_publ_author_name
'Harker, D.'
_cell_length_a 5.72
_cell_length_b 5.72
_cell_length_c 3.564
_cell_angle_alpha 90.
_cell_angle_beta 90.
_cell_angle_gamma 90.
_cell_volume 116.61
_cell_formula_units_Z 2
_symmetry_space_group_name_H-M 'I 4/m'
_symmetry_Int_Tables_number 87
loop_
_symmetry_equiv_pos_site_id
_symmetry_equiv_pos_as_xyz
1 '-y, x, -z'
2 'y, -x, -z'
3 'x, y, -z'
4 '-x, -y, -z'
5 'y, -x, z'
6 '-y, x, z'
7 '-x, -y, z'
8 'x, y, z'
9 '-y+1/2, x+1/2, -z+1/2'
10 'y+1/2, -x+1/2, -z+1/2'
11 'x+1/2, y+1/2, -z+1/2'
12 '-x+1/2, -y+1/2, -z+1/2'
13 'y+1/2, -x+1/2, z+1/2'
14 '-y+1/2, x+1/2, z+1/2'
15 '-x+1/2, -y+1/2, z+1/2'
16 'x+1/2, y+1/2, z+1/2'
loop_
_atom_type_symbol
_atom_type_oxidation_number
Mo0+ 0
Ni0+ 0
loop_
_atom_site_label
_atom_site_type_symbol
_atom_site_symmetry_multiplicity
_atom_site_Wyckoff_symbol
_atom_site_fract_x
_atom_site_fract_y
_atom_site_fract_z
_atom_site_B_iso_or_equiv
_atom_site_occupancy
_atom_site_attached_hydrogens
Mo1 Mo0+ 2 a 0 0 0 . 1. 0
Ni1 Ni0+ 8 h 0.2 0.4 0 . 1. 0
#End of TTdata_105047-ICSD