
#(C) 2017 by FIZ Karlsruhe - Leibniz Institute for Information Infrastructure.  All rights reserved.
data_105046-ICSD
_database_code_ICSD 105046
_audit_creation_date 2004-10-01
_chemical_name_systematic 'Molybdenum nickel (1/3)'
_chemical_formula_structural 'Mo Ni3'
_chemical_formula_sum 'Mo1 Ni3'
_chemical_name_structure_type Cu3Ti
_exptl_crystal_density_diffrn 9.49
_publ_section_title 'The crystal structure of Mo Ni3'
loop_
_citation_id
_citation_journal_full
_citation_year
_citation_journal_volume
_citation_page_first
_citation_page_last
_citation_journal_id_ASTM
primary 'Transactions of the Metallurgical Society of Aime' 1959 215 938 941
TMSAAB
loop_
_publ_author_name
'Saito, S.'
'Beck, P.A.'
_cell_length_a 5.064(8)
_cell_length_b 4.228(8)
_cell_length_c 4.448(8)
_cell_angle_alpha 90.
_cell_angle_beta 90.
_cell_angle_gamma 90.
_cell_volume 95.23
_cell_formula_units_Z 2
_symmetry_space_group_name_H-M 'P m m n S'
_symmetry_Int_Tables_number 59
loop_
_symmetry_equiv_pos_site_id
_symmetry_equiv_pos_as_xyz
1 'x+1/2, -y+1/2, -z'
2 'x+1/2, y+1/2, -z'
3 'x, -y, z'
4 '-x, y, z'
5 '-x+1/2, y+1/2, -z'
6 '-x+1/2, -y+1/2, -z'
7 '-x, -y, z'
8 'x, y, z'
loop_
_atom_type_symbol
_atom_type_oxidation_number
Mo0+ 0
Ni0+ 0
loop_
_atom_site_label
_atom_site_type_symbol
_atom_site_symmetry_multiplicity
_atom_site_Wyckoff_symbol
_atom_site_fract_x
_atom_site_fract_y
_atom_site_fract_z
_atom_site_B_iso_or_equiv
_atom_site_occupancy
_atom_site_attached_hydrogens
Mo1 Mo0+ 2 a 0 0 0.657 . 1. 0
Ni1 Ni0+ 2 b 0 0.5 0.343 . 1. 0
Ni2 Ni0+ 4 f 0.25 0 0.157 . 1. 0
#End of TTdata_105046-ICSD