
#(C) 2017 by FIZ Karlsruhe - Leibniz Institute for Information Infrastructure.  All rights reserved.
data_105193-ICSD
_database_code_ICSD 105193
_audit_creation_date 2004-10-01
_chemical_name_systematic 'Niobium palladium (1/3)'
_chemical_formula_structural 'Nb Pd3'
_chemical_formula_sum 'Nb1 Pd3'
_exptl_crystal_density_diffrn 11.36
_publ_section_title
'New intermediate phases in systems of Nb or Ta with Rh, Ir, Pd, or Pt'
loop_
_citation_id
_citation_journal_full
_citation_year
_citation_journal_volume
_citation_page_first
_citation_page_last
_citation_journal_id_ASTM
primary 'Acta Crystallographica (1,1948-23,1967)' 1964 17 615 616 ACCRA9
loop_
_publ_author_name
'Giessen, B.C.'
'Grant, N.J.'
_cell_length_a 5.486
_cell_length_b 13.602
_cell_length_c 4.845
_cell_angle_alpha 90.
_cell_angle_beta 90.
_cell_angle_gamma 90.
_cell_volume 361.54
_cell_formula_units_Z 6
_symmetry_space_group_name_H-M 'P m m n S'
_symmetry_Int_Tables_number 59
loop_
_symmetry_equiv_pos_site_id
_symmetry_equiv_pos_as_xyz
1 'x+1/2, -y+1/2, -z'
2 'x+1/2, y+1/2, -z'
3 'x, -y, z'
4 '-x, y, z'
5 '-x+1/2, y+1/2, -z'
6 '-x+1/2, -y+1/2, -z'
7 '-x, -y, z'
8 'x, y, z'
loop_
_atom_type_symbol
_atom_type_oxidation_number
Nb0+ 0
Pd0+ 0
loop_
_atom_site_label
_atom_site_type_symbol
_atom_site_symmetry_multiplicity
_atom_site_Wyckoff_symbol
_atom_site_fract_x
_atom_site_fract_y
_atom_site_fract_z
_atom_site_B_iso_or_equiv
_atom_site_occupancy
_atom_site_attached_hydrogens
Nb1 Nb0+ 2 a 0 0 0 . 1. 0
Nb2 Nb0+ 4 e 0 0.667 0.333 . 1. 0
Pd1 Pd0+ 2 b 0 0.5 0 . 1. 0
Pd2 Pd0+ 4 e 0 0.883 0.667 . 1. 0
Pd3 Pd0+ 4 f 0.75 0 0.5 . 1. 0
Pd4 Pd0+ 8 g 0.75 0.667 0.833 . 1. 0
#End of TTdata_105193-ICSD