
#(C) 2017 by FIZ Karlsruhe - Leibniz Institute for Information Infrastructure.  All rights reserved.
data_105166-ICSD
_database_code_ICSD 105166
_audit_creation_date 2004-10-01
_chemical_name_systematic 'Sodium tin (9/4)'
_chemical_formula_structural 'Na9 Sn4'
_chemical_formula_sum 'Na9 Sn4'
_chemical_name_structure_type Li9Ge4
_exptl_crystal_density_diffrn 3.
_publ_section_title 'Die Strukturen der Phasen Na9 Sn4 und Na15 Sn4'
loop_
_citation_id
_citation_journal_full
_citation_year
_citation_journal_volume
_citation_page_first
_citation_page_last
_citation_journal_id_ASTM
primary

;
Zeitschrift fuer Naturforschung, Teil B. Anorganische Chemie, Organische
Chemie (2,1947-32,1977)
; 1978 33 275 278 ZENBAX
loop_
_publ_author_name
'Mueller, W.'
'Volk, K.'
_cell_length_a 5.42(1)
_cell_length_b 9.39(2)
_cell_length_c 29.62(6)
_cell_angle_alpha 90.
_cell_angle_beta 90.
_cell_angle_gamma 90.
_cell_volume 1507.47
_cell_formula_units_Z 4
_symmetry_space_group_name_H-M 'C m c m'
_symmetry_Int_Tables_number 63
_refine_ls_R_factor_all 0.112
loop_
_symmetry_equiv_pos_site_id
_symmetry_equiv_pos_as_xyz
1 '-x, y, -z+1/2'
2 '-x, -y, z+1/2'
3 '-x, y, z'
4 '-x, -y, -z'
5 'x, -y, z+1/2'
6 'x, y, -z+1/2'
7 'x, -y, -z'
8 'x, y, z'
9 '-x+1/2, y+1/2, -z+1/2'
10 '-x+1/2, -y+1/2, z+1/2'
11 '-x+1/2, y+1/2, z'
12 '-x+1/2, -y+1/2, -z'
13 'x+1/2, -y+1/2, z+1/2'
14 'x+1/2, y+1/2, -z+1/2'
15 'x+1/2, -y+1/2, -z'
16 'x+1/2, y+1/2, z'
loop_
_atom_type_symbol
_atom_type_oxidation_number
Na0+ 0
Sn0+ 0
loop_
_atom_site_label
_atom_site_type_symbol
_atom_site_symmetry_multiplicity
_atom_site_Wyckoff_symbol
_atom_site_fract_x
_atom_site_fract_y
_atom_site_fract_z
_atom_site_B_iso_or_equiv
_atom_site_occupancy
_atom_site_attached_hydrogens
Na1 Na0+ 4 c 0 0.816(2) 0.25 0.069(4) 1. 0
Na2 Na0+ 8 f 0 0.149(1) 0.418(1) 0.042(3) 1. 0
Na3 Na0+ 8 f 0 0.493(2) 0.156(1) 0.045(3) 1. 0
Na4 Na0+ 8 f 0 0.130(2) 0.635(1) 0.072(4) 1. 0
Na5 Na0+ 8 f 0 0.171(2) 0.523(3) 0.027(2) 1. 0
Sn1 Sn0+ 8 f 0 0.1658(7) 0.2022(4) . 1. 0
Sn2 Sn0+ 8 f 0 0.5000(8) 0.0482(4) . 1. 0
loop_
_atom_site_aniso_label
_atom_site_aniso_type_symbol
_atom_site_aniso_U_11
_atom_site_aniso_U_22
_atom_site_aniso_U_33
_atom_site_aniso_U_12
_atom_site_aniso_U_13
_atom_site_aniso_U_23
Sn1 Sn0+ 0.017(2) 0.017(2) 0.013(4) 0 0 0
Sn2 Sn0+ 0.017(1) 0.014(2) 0.030(4) 0 0 0
#End of TTdata_105166-ICSD