
data_105366-ICSD
_database_code_ICSD 105366
_audit_creation_date 2004-10-01
_chemical_name_systematic 'Nickel tin strontium (1/3/1)'
_chemical_formula_structural 'Ni Sn3 Sr'
_chemical_formula_sum 'Ni1 Sn3 Sr1'
_chemical_name_structure_type BaNiSn3
_exptl_crystal_density_diffrn 6.83
_cell_length_a 4.74(1)
_cell_length_b 4.74
_cell_length_c 10.88(2)
_cell_angle_alpha 90.
_cell_angle_beta 90.
_cell_angle_gamma 90.
_cell_volume 244.45
_cell_formula_units_Z 2
_symmetry_space_group_name_H-M 'I 4 m m'
_symmetry_Int_Tables_number 107
_refine_ls_R_factor_all 0.0472
loop_
_symmetry_equiv_pos_site_id
_symmetry_equiv_pos_as_xyz
1 '-y, x, z'
2 'y, -x, z'
3 '-y, -x, z'
4 'y, x, z'
5 'x, -y, z'
6 '-x, y, z'
7 '-x, -y, z'
8 'x, y, z'
9 '-y+1/2, x+1/2, z+1/2'
10 'y+1/2, -x+1/2, z+1/2'
11 '-y+1/2, -x+1/2, z+1/2'
12 'y+1/2, x+1/2, z+1/2'
13 'x+1/2, -y+1/2, z+1/2'
14 '-x+1/2, y+1/2, z+1/2'
15 '-x+1/2, -y+1/2, z+1/2'
16 'x+1/2, y+1/2, z+1/2'
loop_
_atom_type_symbol
_atom_type_oxidation_number
Ni0+ 0
Sn0+ 0
Sr0+ 0
loop_
_atom_site_label
_atom_site_type_symbol
_atom_site_symmetry_multiplicity
_atom_site_Wyckoff_symbol
_atom_site_fract_x
_atom_site_fract_y
_atom_site_fract_z
_atom_site_B_iso_or_equiv
_atom_site_occupancy
_atom_site_attached_hydrogens
Ni1 Ni0+ 2 a 0 0 0.659(2) . 1. 0
Sn1 Sn0+ 2 a 0 0 0.429(1) . 1. 0
Sn2 Sn0+ 4 b 0 0.5 0.25 . 1. 0
Sr1 Sr0+ 2 a 0 0 0. . 1. 0
loop_
_atom_site_aniso_label
_atom_site_aniso_type_symbol
_atom_site_aniso_U_11
_atom_site_aniso_U_22
_atom_site_aniso_U_33
_atom_site_aniso_U_12
_atom_site_aniso_U_13
_atom_site_aniso_U_23
Ni1 Ni0+ 0.006(3) 0.006 0.008(4) 0 0 0
Sn1 Sn0+ 0.007(2) 0.007 0.003(2) 0 0 0
Sn2 Sn0+ 0.003(2) 0.005(2) 0.008(2) 0 0 0
Sr1 Sr0+ 0.010(2) 0.01 0.012(3) 0 0 0
