
#(C) 2017 by FIZ Karlsruhe - Leibniz Institute for Information Infrastructure.  All rights reserved.
data_105427-ICSD
_database_code_ICSD 105427
_audit_creation_date 2004-10-01
_chemical_name_systematic 'Nickel thallium (1/1)'
_chemical_formula_structural 'Ni Tl'
_chemical_formula_sum 'Ni1 Tl1'
_chemical_name_structure_type Nickeline-NiAs
_exptl_crystal_density_diffrn 9.3
_publ_section_title
'A new Ni As type phase obtained by simultaneous evaporation of Ni and Tl'
loop_
_citation_id
_citation_journal_full
_citation_year
_citation_journal_volume
_citation_page_first
_citation_page_last
_citation_journal_id_ASTM
primary 'Scripta Metallurgica' 1969 3 731 733 SCRMBU
loop_
_publ_author_name
'Bitti, R.R.'
'Cascioli, V.'
_cell_length_a 4.426
_cell_length_b 4.426
_cell_length_c 5.535
_cell_angle_alpha 90.
_cell_angle_beta 90.
_cell_angle_gamma 120.
_cell_volume 93.9
_cell_formula_units_Z 2
_symmetry_space_group_name_H-M 'P 63/m m c'
_symmetry_Int_Tables_number 194
loop_
_symmetry_equiv_pos_site_id
_symmetry_equiv_pos_as_xyz
1 'x, x-y, -z+1/2'
2 '-x+y, y, -z+1/2'
3 '-y, -x, -z+1/2'
4 '-x+y, -x, -z+1/2'
5 '-y, x-y, -z+1/2'
6 'x, y, -z+1/2'
7 '-x, -x+y, z+1/2'
8 'x-y, -y, z+1/2'
9 'y, x, z+1/2'
10 'x-y, x, z+1/2'
11 'y, -x+y, z+1/2'
12 '-x, -y, z+1/2'
13 '-x, -x+y, -z'
14 'x-y, -y, -z'
15 'y, x, -z'
16 'x-y, x, -z'
17 'y, -x+y, -z'
18 '-x, -y, -z'
19 'x, x-y, z'
20 '-x+y, y, z'
21 '-y, -x, z'
22 '-x+y, -x, z'
23 '-y, x-y, z'
24 'x, y, z'
loop_
_atom_type_symbol
_atom_type_oxidation_number
Ni0+ 0
Tl0+ 0
loop_
_atom_site_label
_atom_site_type_symbol
_atom_site_symmetry_multiplicity
_atom_site_Wyckoff_symbol
_atom_site_fract_x
_atom_site_fract_y
_atom_site_fract_z
_atom_site_B_iso_or_equiv
_atom_site_occupancy
_atom_site_attached_hydrogens
Ni1 Ni0+ 2 a 0 0 0 . 1. 0
Tl1 Tl0+ 2 c 0.3333 0.6667 0.25 . 1. 0
#End of TTdata_105427-ICSD