
#(C) 2017 by FIZ Karlsruhe - Leibniz Institute for Information Infrastructure.  All rights reserved.
data_105441-ICSD
_database_code_ICSD 105441
_audit_creation_date 2004-10-01
_chemical_name_systematic 'Nickel vanadium (2/1)'
_chemical_formula_structural 'Ni2 V'
_chemical_formula_sum 'Ni2 V1'
_chemical_name_structure_type MoPt2
_exptl_crystal_density_diffrn 8.06
_publ_section_title
'The crystal structures of V Ni2, V Pd2, V Pt2, and related A B2 phases'
loop_
_citation_id
_citation_journal_full
_citation_year
_citation_journal_volume
_citation_page_first
_citation_page_last
_citation_journal_id_ASTM
primary 'Journal of the Less-Common Metals' 1965 8 114 119 JCOMAH
loop_
_publ_author_name
'Giessen, B.C.'
'Grant, N.J.'
_cell_length_a 2.559
_cell_length_b 7.641
_cell_length_c 3.549
_cell_angle_alpha 90.
_cell_angle_beta 90.
_cell_angle_gamma 90.
_cell_volume 69.39
_cell_formula_units_Z 2
_symmetry_space_group_name_H-M 'I m m m'
_symmetry_Int_Tables_number 71
loop_
_symmetry_equiv_pos_site_id
_symmetry_equiv_pos_as_xyz
1 'x, y, -z'
2 'x, -y, z'
3 '-x, y, z'
4 '-x, -y, -z'
5 '-x, -y, z'
6 '-x, y, -z'
7 'x, -y, -z'
8 'x, y, z'
9 'x+1/2, y+1/2, -z+1/2'
10 'x+1/2, -y+1/2, z+1/2'
11 '-x+1/2, y+1/2, z+1/2'
12 '-x+1/2, -y+1/2, -z+1/2'
13 '-x+1/2, -y+1/2, z+1/2'
14 '-x+1/2, y+1/2, -z+1/2'
15 'x+1/2, -y+1/2, -z+1/2'
16 'x+1/2, y+1/2, z+1/2'
loop_
_atom_type_symbol
_atom_type_oxidation_number
Ni0+ 0
V0+ 0
loop_
_atom_site_label
_atom_site_type_symbol
_atom_site_symmetry_multiplicity
_atom_site_Wyckoff_symbol
_atom_site_fract_x
_atom_site_fract_y
_atom_site_fract_z
_atom_site_B_iso_or_equiv
_atom_site_occupancy
_atom_site_attached_hydrogens
Ni1 Ni0+ 4 g 0 0.334 0 . 1. 0
V1 V0+ 2 a 0 0 0 . 1. 0
#End of TTdata_105441-ICSD