
#(C) 2017 by FIZ Karlsruhe - Leibniz Institute for Information Infrastructure.  All rights reserved.
data_105821-ICSD
_database_code_ICSD 105821
_audit_creation_date 2004-10-01
_audit_update_record 2010-08-01
_chemical_name_systematic 'Platinum thallium (3/2)'
_chemical_formula_structural 'Pt3 Tl2'
_chemical_formula_sum 'Pt3 Tl2'
_chemical_name_structure_type Pt3Tl2
_exptl_crystal_density_diffrn 17.27
_publ_section_title 'Ueber die Mischungen Pd-Tl und Pt-Tl'
loop_
_citation_id
_citation_journal_full
_citation_year
_citation_journal_volume
_citation_page_first
_citation_page_last
_citation_journal_id_ASTM
primary 'Journal of the Less-Common Metals' 1968 16 415 425 JCOMAH
loop_
_publ_author_name
'Bhan, S.'
'Goedecke, T.'
'Panday, P.K.'
'Schubert, K.'
_cell_length_a 5.645
_cell_length_b 5.645
_cell_length_c 13.851
_cell_angle_alpha 90.
_cell_angle_beta 90.
_cell_angle_gamma 120.
_cell_volume 382.24
_cell_formula_units_Z 4
_symmetry_space_group_name_H-M 'P -3 1 c'
_symmetry_Int_Tables_number 163
_refine_ls_R_factor_all 0.19
loop_
_symmetry_equiv_pos_site_id
_symmetry_equiv_pos_as_xyz
1 '-x+y, y, -z+1/2'
2 'x, x-y, -z+1/2'
3 '-y, -x, -z+1/2'
4 'x-y, x, -z'
5 'y, -x+y, -z'
6 '-x, -y, -z'
7 'x-y, -y, z+1/2'
8 '-x, -x+y, z+1/2'
9 'y, x, z+1/2'
10 '-x+y, -x, z'
11 '-y, x-y, z'
12 'x, y, z'
loop_
_atom_type_symbol
_atom_type_oxidation_number
Pt0+ 0
Tl0+ 0
loop_
_atom_site_label
_atom_site_type_symbol
_atom_site_symmetry_multiplicity
_atom_site_Wyckoff_symbol
_atom_site_fract_x
_atom_site_fract_y
_atom_site_fract_z
_atom_site_B_iso_or_equiv
_atom_site_occupancy
_atom_site_attached_hydrogens
Pt1 Pt0+ 12 i 0.1667 0.3333 0.0875 . 1. 0
Tl1 Tl0+ 2 a 0 0 0.25 . 1. 0
Tl2 Tl0+ 2 c 0.3333 0.6667 0.25 . 1. 0
Tl3 Tl0+ 4 f 0.3333 0.6667 0.9087 . 1. 0
#End of TTdata_105821-ICSD