
data_106267-ICSD
_database_code_ICSD 106267
_audit_creation_date 2005-04-01
_chemical_name_systematic 'Lead palladium arsenide (2/3/1)'
_chemical_formula_structural 'Pb2 Pd3 As'
_chemical_formula_sum 'As1 Pb2 Pd3'
_chemical_name_structure_type Na2SiO3
_exptl_crystal_density_diffrn 11.37
_cell_length_a 11.857(2)
_cell_length_b 6.861(1)
_cell_length_c 5.808(1)
_cell_angle_alpha 90.
_cell_angle_beta 90.
_cell_angle_gamma 90.
_cell_volume 472.49
_cell_formula_units_Z 4
_symmetry_space_group_name_H-M 'C m c 21'
_symmetry_Int_Tables_number 36
_refine_ls_R_factor_all 0.073
loop_
_symmetry_equiv_pos_site_id
_symmetry_equiv_pos_as_xyz
1 'x, -y, z+1/2'
2 '-x, -y, z+1/2'
3 '-x, y, z'
4 'x, y, z'
5 'x+1/2, -y+1/2, z+1/2'
6 '-x+1/2, -y+1/2, z+1/2'
7 '-x+1/2, y+1/2, z'
8 'x+1/2, y+1/2, z'
loop_
_atom_type_symbol
_atom_type_oxidation_number
Pb0+ 0
Pd0+ 0
As0+ 0
loop_
_atom_site_label
_atom_site_type_symbol
_atom_site_symmetry_multiplicity
_atom_site_Wyckoff_symbol
_atom_site_fract_x
_atom_site_fract_y
_atom_site_fract_z
_atom_site_B_iso_or_equiv
_atom_site_occupancy
_atom_site_attached_hydrogens
Pb1 Pb0+ 8 b 0.3204 0.3361 0.307 . 1. 0
Pd1 Pd0+ 4 a 0 0.946 0.021 . 1. 0
Pd2 Pd0+ 8 b 0.3781 0.0442 0. . 1. 0
As1 As0+ 4 a 0 0.291 0.205 . 1. 0
