
#(C) 2017 by FIZ Karlsruhe - Leibniz Institute for Information Infrastructure.  All rights reserved.
data_106227-ICSD
_database_code_ICSD 106227
_audit_creation_date 2004-10-01
_audit_update_record 2006-10-01
_chemical_name_systematic 'Yttrium zinc (1/3)'
_chemical_formula_structural 'Y Zn3'
_chemical_formula_sum 'Y1 Zn3'
_chemical_name_structure_type ScRhSi2
_exptl_crystal_density_diffrn 6.35
_publ_section_title 'The crystal structure of Ho Zn3'
loop_
_citation_id
_citation_journal_full
_citation_year
_citation_journal_volume
_citation_page_first
_citation_page_last
_citation_journal_id_ASTM
primary 'Acta Crystallographica B (24,1968-38,1982)' 1968 24 1267 1269 ACBCAR
loop_
_publ_author_name
'Michel, D.C.'
'Ryba, E.'
_cell_length_a 6.690(5)
_cell_length_b 4.405(3)
_cell_length_c 10.111(9)
_cell_angle_alpha 90.
_cell_angle_beta 90.
_cell_angle_gamma 90.
_cell_volume 297.97
_cell_formula_units_Z 4
_symmetry_space_group_name_H-M 'P n m a'
_symmetry_Int_Tables_number 62
loop_
_symmetry_equiv_pos_site_id
_symmetry_equiv_pos_as_xyz
1 'x+1/2, y, -z+1/2'
2 'x, -y+1/2, z'
3 '-x+1/2, y+1/2, z+1/2'
4 '-x, -y, -z'
5 '-x+1/2, -y, z+1/2'
6 '-x, y+1/2, -z'
7 'x+1/2, -y+1/2, -z+1/2'
8 'x, y, z'
loop_
_atom_type_symbol
_atom_type_oxidation_number
Y0+ 0
Zn0+ 0
loop_
_atom_site_label
_atom_site_type_symbol
_atom_site_symmetry_multiplicity
_atom_site_Wyckoff_symbol
_atom_site_fract_x
_atom_site_fract_y
_atom_site_fract_z
_atom_site_B_iso_or_equiv
_atom_site_occupancy
_atom_site_attached_hydrogens
Y1 Y0+ 4 c 0.2773(9) 0.25 0.3387(6) 0.62(10) 1. 0
Zn1 Zn0+ 4 c 0.2152(14) 0.25 0.0499(9) 1.22(17) 1. 0
Zn2 Zn0+ 4 c 0.9162(14) 0.25 0.8549(9) 1.27(17) 1. 0
Zn3 Zn0+ 4 c 0.5362(13) 0.25 0.8956(9) 1.20(16) 1. 0
#End of TTdata_106227-ICSD