
#(C) 2017 by FIZ Karlsruhe - Leibniz Institute for Information Infrastructure.  All rights reserved.
data_106347-ICSD
_database_code_ICSD 106347
_audit_creation_date 2005-04-01
_chemical_name_systematic 'Calcium indium nickel (1/4/1)'
_chemical_formula_structural 'Ca In4 Ni'
_chemical_formula_sum 'Ca1 In4 Ni1'
_chemical_name_structure_type Al4NiY
_exptl_crystal_density_diffrn 6.98
_publ_section_title
'New ternary compounds of indium with calcium (europium) and copper (nickel)'
loop_
_citation_id
_citation_journal_full
_citation_year
_citation_journal_volume
_citation_page_first
_citation_page_last
_citation_journal_id_ASTM
primary Kristallografiya 1993 38 271 274 KRISAJ
loop_
_publ_author_name
'Sysa, L.V.'
'Kal'ichak, Ya.M.'
_cell_length_a 4.401(1)
_cell_length_b 16.549(4)
_cell_length_c 7.294(3)
_cell_angle_alpha 90.
_cell_angle_beta 90.
_cell_angle_gamma 90.
_cell_volume 531.24
_cell_formula_units_Z 4
_symmetry_space_group_name_H-M 'C m c m'
_symmetry_Int_Tables_number 63
_refine_ls_R_factor_all 0.073
loop_
_symmetry_equiv_pos_site_id
_symmetry_equiv_pos_as_xyz
1 '-x, y, -z+1/2'
2 '-x, -y, z+1/2'
3 '-x, y, z'
4 '-x, -y, -z'
5 'x, -y, z+1/2'
6 'x, y, -z+1/2'
7 'x, -y, -z'
8 'x, y, z'
9 '-x+1/2, y+1/2, -z+1/2'
10 '-x+1/2, -y+1/2, z+1/2'
11 '-x+1/2, y+1/2, z'
12 '-x+1/2, -y+1/2, -z'
13 'x+1/2, -y+1/2, z+1/2'
14 'x+1/2, y+1/2, -z+1/2'
15 'x+1/2, -y+1/2, -z'
16 'x+1/2, y+1/2, z'
loop_
_atom_type_symbol
_atom_type_oxidation_number
Ca0+ 0
In0+ 0
Ni0+ 0
loop_
_atom_site_label
_atom_site_type_symbol
_atom_site_symmetry_multiplicity
_atom_site_Wyckoff_symbol
_atom_site_fract_x
_atom_site_fract_y
_atom_site_fract_z
_atom_site_B_iso_or_equiv
_atom_site_occupancy
_atom_site_attached_hydrogens
Ca1 Ca0+ 4 c 0 0.118(3) 0.25 1.1(8) 1. 0
In1 In0+ 4 b 0 0.5 0 0.6(4) 1. 0
In2 In0+ 4 c 0 0.927(1) 0.25 1.0(4) 1. 0
In3 In0+ 8 f 0 0.3154(7) 0.047(1) 0.8(2) 1. 0
Ni1 Ni0+ 4 c 0 0.776(2) 0.25 1.0(6) 1. 0
#End of TTdata_106347-ICSD