
#(C) 2017 by FIZ Karlsruhe - Leibniz Institute for Information Infrastructure.  All rights reserved.
data_106330-ICSD
_database_code_ICSD 106330
_audit_creation_date 2005-04-01
_chemical_name_systematic 'Bismuth telluride (8/9)'
_chemical_formula_structural 'Bi8 Te9'
_chemical_formula_sum 'Bi8 Te9'
_chemical_name_structure_type Bi8Se9
_exptl_crystal_density_diffrn 8.1
_publ_section_title 'A study of the phases in the bismuth-tellurium system'
loop_
_citation_id
_citation_journal_full
_citation_year
_citation_journal_volume
_citation_page_first
_citation_page_last
_citation_journal_id_ASTM
primary 'Materials Research Bulletin' 1993 28 591 596 MRBUAC
loop_
_publ_author_name
'Feutelais, Y.'
'Legendre, B.'
'Rodier, N.'
'Agafonov, V.'
_cell_length_a 4.41
_cell_length_b 4.41
_cell_length_c 103.
_cell_angle_alpha 90.
_cell_angle_beta 90.
_cell_angle_gamma 120.
_cell_volume 1734.78
_cell_formula_units_Z 3
_symmetry_space_group_name_H-M 'R -3 m H'
_symmetry_Int_Tables_number 166
loop_
_symmetry_equiv_pos_site_id
_symmetry_equiv_pos_as_xyz
1 'x-y, -y, -z'
2 '-x, -x+y, -z'
3 'y, x, -z'
4 'x-y, x, -z'
5 'y, -x+y, -z'
6 '-x, -y, -z'
7 '-x+y, y, z'
8 'x, x-y, z'
9 '-y, -x, z'
10 '-x+y, -x, z'
11 '-y, x-y, z'
12 'x, y, z'
13 'x-y+2/3, -y+1/3, -z+1/3'
14 '-x+2/3, -x+y+1/3, -z+1/3'
15 'y+2/3, x+1/3, -z+1/3'
16 'x-y+2/3, x+1/3, -z+1/3'
17 'y+2/3, -x+y+1/3, -z+1/3'
18 '-x+2/3, -y+1/3, -z+1/3'
19 '-x+y+2/3, y+1/3, z+1/3'
20 'x+2/3, x-y+1/3, z+1/3'
21 '-y+2/3, -x+1/3, z+1/3'
22 '-x+y+2/3, -x+1/3, z+1/3'
23 '-y+2/3, x-y+1/3, z+1/3'
24 'x+2/3, y+1/3, z+1/3'
25 'x-y+1/3, -y+2/3, -z+2/3'
26 '-x+1/3, -x+y+2/3, -z+2/3'
27 'y+1/3, x+2/3, -z+2/3'
28 'x-y+1/3, x+2/3, -z+2/3'
29 'y+1/3, -x+y+2/3, -z+2/3'
30 '-x+1/3, -y+2/3, -z+2/3'
31 '-x+y+1/3, y+2/3, z+2/3'
32 'x+1/3, x-y+2/3, z+2/3'
33 '-y+1/3, -x+2/3, z+2/3'
34 '-x+y+1/3, -x+2/3, z+2/3'
35 '-y+1/3, x-y+2/3, z+2/3'
36 'x+1/3, y+2/3, z+2/3'
loop_
_atom_type_symbol
_atom_type_oxidation_number
Bi0+ 0
Te0+ 0
loop_
_atom_site_label
_atom_site_type_symbol
_atom_site_symmetry_multiplicity
_atom_site_Wyckoff_symbol
_atom_site_fract_x
_atom_site_fract_y
_atom_site_fract_z
_atom_site_B_iso_or_equiv
_atom_site_occupancy
_atom_site_attached_hydrogens
Bi1 Bi0+ 6 c 0 0 0.115 . 1. 0
Bi2 Bi0+ 6 c 0 0 0.177 . 1. 0
Bi3 Bi0+ 6 c 0 0 0.352 . 1. 0
Bi4 Bi0+ 6 c 0 0 0.41 . 1. 0
Te1 Te0+ 3 a 0 0 0 . 1. 0
Te2 Te0+ 6 c 0 0 0.062 . 1. 0
Te3 Te0+ 6 c 0 0 0.233 . 1. 0
Te4 Te0+ 6 c 0 0 0.296 . 1. 0
Te5 Te0+ 6 c 0 0 0.481 . 1. 0
#End of TTdata_106330-ICSD