
#(C) 2017 by FIZ Karlsruhe - Leibniz Institute for Information Infrastructure.  All rights reserved.
data_106926-ICSD
_database_code_ICSD 106926
_audit_creation_date 2005-10-01
_audit_update_record 2016-02-01
_chemical_name_systematic 'Molybdenum nitride (1/1)'
_chemical_formula_structural 'Mo N'
_chemical_formula_sum 'Mo1 N1'
_chemical_name_structure_type MoN
_exptl_crystal_density_diffrn 9.37
_publ_section_title 'High pressure synthesis of molybdenum nitride Mo N'
loop_
_citation_id
_citation_journal_full
_citation_year
_citation_journal_volume
_citation_page_first
_citation_page_last
_citation_journal_id_ASTM
primary 'Journal of Alloys and Compounds' 2000 296 72 73 JALCEU
loop_
_publ_author_name
'Zhao Xu Dong'
'Range, K.J.'
_cell_length_a 5.72(9)
_cell_length_b 5.72
_cell_length_c 5.50(4)
_cell_angle_alpha 90.
_cell_angle_beta 90.
_cell_angle_gamma 120.
_cell_volume 155.84
_cell_formula_units_Z 8
_symmetry_space_group_name_H-M 'P 63/m m c'
_symmetry_Int_Tables_number 194
loop_
_symmetry_equiv_pos_site_id
_symmetry_equiv_pos_as_xyz
1 'x, x-y, -z+1/2'
2 '-x+y, y, -z+1/2'
3 '-y, -x, -z+1/2'
4 '-x+y, -x, -z+1/2'
5 '-y, x-y, -z+1/2'
6 'x, y, -z+1/2'
7 '-x, -x+y, z+1/2'
8 'x-y, -y, z+1/2'
9 'y, x, z+1/2'
10 'x-y, x, z+1/2'
11 'y, -x+y, z+1/2'
12 '-x, -y, z+1/2'
13 '-x, -x+y, -z'
14 'x-y, -y, -z'
15 'y, x, -z'
16 'x-y, x, -z'
17 'y, -x+y, -z'
18 '-x, -y, -z'
19 'x, x-y, z'
20 '-x+y, y, z'
21 '-y, -x, z'
22 '-x+y, -x, z'
23 '-y, x-y, z'
24 'x, y, z'
loop_
_atom_type_symbol
_atom_type_oxidation_number
Mo3+ 3
N3- -3
loop_
_atom_site_label
_atom_site_type_symbol
_atom_site_symmetry_multiplicity
_atom_site_Wyckoff_symbol
_atom_site_fract_x
_atom_site_fract_y
_atom_site_fract_z
_atom_site_B_iso_or_equiv
_atom_site_occupancy
_atom_site_attached_hydrogens
Mo1 Mo3+ 2 b 0 0 0.25 . 1. 0
Mo2 Mo3+ 6 h 0.48(9) 0.96 0.25 . 1. 0
N1 N3- 2 a 0 0 0 . 1. 0
N2 N3- 6 g 0.5 0 0 . 1. 0
#End of TTdata_106926-ICSD