
#(C) 2017 by FIZ Karlsruhe - Leibniz Institute for Information Infrastructure.  All rights reserved.
data_107332-ICSD
_database_code_ICSD 107332
_audit_creation_date 2005-10-01
_chemical_name_systematic 'Indium palladium zirconium (1/2/2)'
_chemical_formula_structural 'In Pd2 Zr2'
_chemical_formula_sum 'In1 Pd2 Zr2'
_chemical_name_structure_type Al2Zr3(tP20)
_exptl_crystal_density_diffrn 8.94
_publ_section_title

;
Ti2 Ni2 In, Zr2 Co2 In, and Zr2 Pd2 In - Intermetallic compounds with ordered
U3 Si2 and Zr3 Al2 type structure
;
loop_
_citation_id
_citation_journal_full
_citation_year
_citation_journal_volume
_citation_page_first
_citation_page_last
_citation_journal_id_ASTM
primary 'Zeitschrift fuer Naturforschung, B: Chemical Sciences' 1996 51 1248
1254 ZNBSEN
loop_
_publ_author_name
'Poettgen, R.'
'Kotzyba, G.'
_cell_length_a 7.438(3)
_cell_length_b 7.438
_cell_length_c 6.852(4)
_cell_angle_alpha 90.
_cell_angle_beta 90.
_cell_angle_gamma 90.
_cell_volume 379.08
_cell_formula_units_Z 4
_symmetry_space_group_name_H-M 'P 42/m n m'
_symmetry_Int_Tables_number 136
_refine_ls_R_factor_all 0.0369
loop_
_symmetry_equiv_pos_site_id
_symmetry_equiv_pos_as_xyz
1 '-y+1/2, x+1/2, -z+1/2'
2 'y+1/2, -x+1/2, -z+1/2'
3 'y, x, -z'
4 '-y, -x, -z'
5 'y+1/2, -x+1/2, z+1/2'
6 '-y+1/2, x+1/2, z+1/2'
7 '-y, -x, z'
8 'y, x, z'
9 'x+1/2, -y+1/2, -z+1/2'
10 '-x+1/2, y+1/2, -z+1/2'
11 'x, y, -z'
12 '-x, -y, -z'
13 '-x+1/2, y+1/2, z+1/2'
14 'x+1/2, -y+1/2, z+1/2'
15 '-x, -y, z'
16 'x, y, z'
loop_
_atom_type_symbol
_atom_type_oxidation_number
Zr0+ 0
Pd0+ 0
In0+ 0
loop_
_atom_site_label
_atom_site_type_symbol
_atom_site_symmetry_multiplicity
_atom_site_Wyckoff_symbol
_atom_site_fract_x
_atom_site_fract_y
_atom_site_fract_z
_atom_site_B_iso_or_equiv
_atom_site_occupancy
_atom_site_attached_hydrogens
Zr1 Zr0+ 4 f 0.18630(11) 0.1863 0 0.0086(3) 1. 0
Zr2 Zr0+ 4 g 0.34599(11) 0.65401 0 0.0095(3) 1. 0
Pd1 Pd0+ 8 j 0.37080(6) 0.3708 0.28236(10) 0.0082(3) 1. 0
In1 In0+ 4 d 0 0.5 0.25 0.0106(3) 1. 0
#End of TTdata_107332-ICSD