
data_107470-ICSD
_database_code_ICSD 107470
_audit_creation_date 2005-10-01
_chemical_name_systematic 'Zirconium iridium tin (1/1/1) - supercell'
_chemical_formula_structural 'Zr Ir Sn'
_chemical_formula_sum 'Ir1 Sn1 Zr1'
_chemical_name_structure_type Mg2Ga
_exptl_crystal_density_diffrn 11.82
_cell_length_a 7.321(2)
_cell_length_b 7.321
_cell_length_c 7.322(2)
_cell_angle_alpha 90.
_cell_angle_beta 90.
_cell_angle_gamma 120.
_cell_volume 339.86
_cell_formula_units_Z 6
_symmetry_space_group_name_H-M 'P -6 2 c'
_symmetry_Int_Tables_number 190
_refine_ls_R_factor_all 0.0202
loop_
_symmetry_equiv_pos_site_id
_symmetry_equiv_pos_as_xyz
1 '-x, -x+y, -z'
2 'x-y, -y, -z'
3 'y, x, -z'
4 '-x, -x+y, z+1/2'
5 'x-y, -y, z+1/2'
6 'y, x, z+1/2'
7 '-x+y, -x, -z+1/2'
8 '-y, x-y, -z+1/2'
9 'x, y, -z+1/2'
10 '-x+y, -x, z'
11 '-y, x-y, z'
12 'x, y, z'
loop_
_atom_type_symbol
_atom_type_oxidation_number
Zr0+ 0
Ir0+ 0
Sn0+ 0
loop_
_atom_site_label
_atom_site_type_symbol
_atom_site_symmetry_multiplicity
_atom_site_Wyckoff_symbol
_atom_site_fract_x
_atom_site_fract_y
_atom_site_fract_z
_atom_site_B_iso_or_equiv
_atom_site_occupancy
_atom_site_attached_hydrogens
Zr1 Zr0+ 6 h 0.4059(2) 0.0203(2) 0.25 0.0068(2) 1. 0
Ir1 Ir0+ 2 b 0 0 0.25 0.0060(1) 1. 0
Ir2 Ir0+ 4 f 0.3333 0.6667 0.03714(6) 0.0059(1) 1. 0
Sn1 Sn0+ 6 g 0.72961(9) 0 0 0.0064(1) 1. 0
