
#(C) 2017 by FIZ Karlsruhe - Leibniz Institute for Information Infrastructure.  All rights reserved.
data_107450-ICSD
_database_code_ICSD 107450
_audit_creation_date 2005-10-01
_chemical_name_systematic 'Gold potassium lead (5/3/1)'
_chemical_formula_structural 'Au5 K3 Pb'
_chemical_formula_sum 'Au5 K3 Pb1'
_chemical_name_structure_type Au5K3Tl
_exptl_crystal_density_diffrn 9.39
_publ_section_title

;
K3 Au5 Pb: eine Schichtstruktur mit (Au Au3/2)-Gold- Tetraedern und
(Pb2/2)-Blei-Ketten
;
loop_
_citation_id
_citation_journal_full
_citation_year
_citation_journal_volume
_citation_page_first
_citation_page_last
_citation_journal_id_ASTM
primary 'Zeitschrift fuer Anorganische und Allgemeine Chemie (1950) (DE)' 1998
624 1569 1572 ZAACAB
loop_
_publ_author_name
'Zachwieja, U.'
'Wlodarski, J.'
_cell_length_a 5.646(1)
_cell_length_b 19.500(4)
_cell_length_c 8.412(1)
_cell_angle_alpha 90.
_cell_angle_beta 90.
_cell_angle_gamma 90.
_cell_volume 926.14
_cell_formula_units_Z 4
_symmetry_space_group_name_H-M 'I m m a'
_symmetry_Int_Tables_number 74
_refine_ls_R_factor_all 0.058
loop_
_symmetry_equiv_pos_site_id
_symmetry_equiv_pos_as_xyz
1 '-x, y+1/2, -z'
2 '-x, -y+1/2, z'
3 '-x, y, z'
4 '-x, -y, -z'
5 'x, -y+1/2, z'
6 'x, y+1/2, -z'
7 'x, -y, -z'
8 'x, y, z'
9 '-x+1/2, y, -z+1/2'
10 '-x+1/2, -y, z+1/2'
11 '-x+1/2, y+1/2, z+1/2'
12 '-x+1/2, -y+1/2, -z+1/2'
13 'x+1/2, -y, z+1/2'
14 'x+1/2, y, -z+1/2'
15 'x+1/2, -y+1/2, -z+1/2'
16 'x+1/2, y+1/2, z+1/2'
loop_
_atom_type_symbol
_atom_type_oxidation_number
Au0+ 0
K0+ 0
Pb0+ 0
loop_
_atom_site_label
_atom_site_type_symbol
_atom_site_symmetry_multiplicity
_atom_site_Wyckoff_symbol
_atom_site_fract_x
_atom_site_fract_y
_atom_site_fract_z
_atom_site_B_iso_or_equiv
_atom_site_occupancy
_atom_site_attached_hydrogens
Au1 Au0+ 8 h 0 0.14351(4) 0.03801(8) 1.10(1) 1. 0
Au2 Au0+ 8 g 0.25 0.06542(3) 0.25 0.94(1) 1. 0
Au3 Au0+ 4 a 0 0 0 0.88(2) 1. 0
K1 K0+ 8 h 0 0.0857(3) 0.6236(5) 1.50(6) 1. 0
K2 K0+ 4 e 0 0.25 0.3744(3) 1.92(1) 1. 0
Pb1 Pb0+ 4 e 0 0.25 0.8341(1) 1.05(2) 1. 0
#End of TTdata_107450-ICSD