
#(C) 2017 by FIZ Karlsruhe - Leibniz Institute for Information Infrastructure.  All rights reserved.
data_107572-ICSD
_database_code_ICSD 107572
_audit_creation_date 2005-10-01
_chemical_name_systematic 'Gallium palladium (5/13)'
_chemical_formula_structural 'Ga5 Pd13'
_chemical_formula_sum 'Ga5 Pd13'
_exptl_crystal_density_diffrn 11.02
_publ_section_title

;
Die Kristallstruktur von Ga5 Pd13 - eine niedersymmetrische Ordnungsvariantte
der kubisch dichtesten Kupelpackung
;
loop_
_citation_id
_citation_journal_full
_citation_year
_citation_journal_volume
_citation_page_first
_citation_page_last
_citation_journal_id_ASTM
primary 'Zeitschrift fuer Anorganische und Allgemeine Chemie (1950) (DE)' 2000
626 1540 1544 ZAACAB
loop_
_publ_author_name
'Wannek, C.'
'Harbrecht, B.'
_cell_length_a 24.2599(5)
_cell_length_b 4.0506(7)
_cell_length_c 5.4437(1)
_cell_angle_alpha 90.
_cell_angle_beta 102.69(1)
_cell_angle_gamma 90.
_cell_volume 521.87
_cell_formula_units_Z 2
_symmetry_space_group_name_H-M 'C 1 2/m 1'
_symmetry_Int_Tables_number 12
_refine_ls_R_factor_all 0.069
loop_
_symmetry_equiv_pos_site_id
_symmetry_equiv_pos_as_xyz
1 '-x, y, -z'
2 '-x, -y, -z'
3 'x, -y, z'
4 'x, y, z'
5 '-x+1/2, y+1/2, -z'
6 '-x+1/2, -y+1/2, -z'
7 'x+1/2, -y+1/2, z'
8 'x+1/2, y+1/2, z'
loop_
_atom_type_symbol
_atom_type_oxidation_number
Ga0+ 0
Pd0+ 0
loop_
_atom_site_label
_atom_site_type_symbol
_atom_site_symmetry_multiplicity
_atom_site_Wyckoff_symbol
_atom_site_fract_x
_atom_site_fract_y
_atom_site_fract_z
_atom_site_B_iso_or_equiv
_atom_site_occupancy
_atom_site_attached_hydrogens
Ga1 Ga0+ 2 a 0 0 0 0.010(3) 1. 0
Ga2 Ga0+ 4 i 0.1076(2) 0 0.645(1) 0.009(2) 1. 0
Ga3 Ga0+ 4 i 0.3228(3) 0 0.681(1) 0.017(2) 1. 0
Pd1 Pd0+ 2 c 0 0 0.5 0.011(2) 1. 0
Pd2 Pd0+ 4 i 0.1123(1) 0 0.1278(7) 0.008(1) 1. 0
Pd3 Pd0+ 4 i 0.2134(2) 0 0.5953(8) 0.019(1) 1. 0
Pd4 Pd0+ 4 i 0.2249(2) 0 0.1089(8) 0.018(1) 1. 0
Pd5 Pd0+ 4 i 0.3399(2) 0 0.1730(8) 0.019(1) 1. 0
Pd6 Pd0+ 4 i 0.4308(1) 0 0.6333(7) 0.009(1) 1. 0
Pd7 Pd0+ 4 i 0.4541(2) 0 0.1548(6) 0.008(1) 1. 0
#End of TTdata_107572-ICSD