
#(C) 2017 by FIZ Karlsruhe - Leibniz Institute for Information Infrastructure.  All rights reserved.
data_107556-ICSD
_database_code_ICSD 107556
_audit_creation_date 2005-10-01
_audit_update_record 2012-02-01
_chemical_name_systematic 'Gold sodium stannide (1/2/3)'
_chemical_formula_structural 'Au Na2 Sn3'
_chemical_formula_sum 'Au1 Na2 Sn3'
_chemical_name_structure_type AuNa2Sn3
_exptl_crystal_density_diffrn 6.65
_publ_section_title

;
(Sn3/3)-Roehren und Au Sn3-Baugruppen: Darstellung und Struktur von Na2 Au Sn3
;
loop_
_citation_id
_citation_journal_full
_citation_year
_citation_journal_volume
_citation_page_first
_citation_page_last
_citation_journal_id_ASTM
primary 'Zeitschrift fuer Anorganische und Allgemeine Chemie (1950) (DE)' 2001
627 353 356 ZAACAB
loop_
_publ_author_name
'Zachwieja, U.'
_cell_length_a 9.585(1)
_cell_length_b 9.585(1)
_cell_length_c 7.516(2)
_cell_angle_alpha 90.
_cell_angle_beta 90.
_cell_angle_gamma 120.
_cell_volume 598.
_cell_formula_units_Z 4
_symmetry_space_group_name_H-M 'P 63/m m c'
_symmetry_Int_Tables_number 194
_refine_ls_R_factor_all 0.0477
loop_
_symmetry_equiv_pos_site_id
_symmetry_equiv_pos_as_xyz
1 'x, x-y, -z+1/2'
2 '-x+y, y, -z+1/2'
3 '-y, -x, -z+1/2'
4 '-x+y, -x, -z+1/2'
5 '-y, x-y, -z+1/2'
6 'x, y, -z+1/2'
7 '-x, -x+y, z+1/2'
8 'x-y, -y, z+1/2'
9 'y, x, z+1/2'
10 'x-y, x, z+1/2'
11 'y, -x+y, z+1/2'
12 '-x, -y, z+1/2'
13 '-x, -x+y, -z'
14 'x-y, -y, -z'
15 'y, x, -z'
16 'x-y, x, -z'
17 'y, -x+y, -z'
18 '-x, -y, -z'
19 'x, x-y, z'
20 '-x+y, y, z'
21 '-y, -x, z'
22 '-x+y, -x, z'
23 '-y, x-y, z'
24 'x, y, z'
loop_
_atom_type_symbol
_atom_type_oxidation_number
Au0+ 0
Na0+ 0
Sn0+ 0
loop_
_atom_site_label
_atom_site_type_symbol
_atom_site_symmetry_multiplicity
_atom_site_Wyckoff_symbol
_atom_site_fract_x
_atom_site_fract_y
_atom_site_fract_z
_atom_site_B_iso_or_equiv
_atom_site_occupancy
_atom_site_attached_hydrogens
Au1 Au0+ 4 f 0.3333 0.6667 0.04269(8) 1.24(1) 1. 0
Na1 Na0+ 6 h 0.5317(4) 0.0634 0.25 1.8(1) 1. 0
Na2 Na0+ 2 b 0 0 0.25 2.4(2) 1. 0
Sn1 Sn0+ 12 k 0.17068(3) 0.34136 0.05258(7) 1.04(1) 1. 0
#End of TTdata_107556-ICSD