
#(C) 2017 by FIZ Karlsruhe - Leibniz Institute for Information Infrastructure.  All rights reserved.
data_108474-ICSD
_database_code_ICSD 108474
_audit_creation_date 2006-10-01
_audit_update_record 2007-08-01
_chemical_name_systematic 'Iron tin (3/1)'
_chemical_formula_structural 'Fe3 Sn'
_chemical_formula_sum 'Fe3 Sn1'
_chemical_name_structure_type Ni3Sn
_exptl_crystal_density_diffrn 8.45
_publ_section_title

;
Etude de composes V3 Sn, Fe3 Sn et leurs solutions solides et de la phase
Fe3.4-x Vx Sn0.6
;
loop_
_citation_id
_citation_journal_full
_citation_year
_citation_journal_volume
_citation_page_first
_citation_page_last
_citation_journal_id_ASTM
primary 'Annales de Chimie (Paris) (Vol=Year)' 1969 1969 297 308 ANCPAC
loop_
_publ_author_name
'Basile, F.'
'Lecocq, P.'
'Michel, A.'
_cell_length_a 5.458
_cell_length_b 5.458
_cell_length_c 4.361
_cell_angle_alpha 90.
_cell_angle_beta 90.
_cell_angle_gamma 120.
_cell_volume 112.51
_cell_formula_units_Z 2
_symmetry_space_group_name_H-M 'P 63/m m c'
_symmetry_Int_Tables_number 194
loop_
_symmetry_equiv_pos_site_id
_symmetry_equiv_pos_as_xyz
1 'x, x-y, -z+1/2'
2 '-x+y, y, -z+1/2'
3 '-y, -x, -z+1/2'
4 '-x+y, -x, -z+1/2'
5 '-y, x-y, -z+1/2'
6 'x, y, -z+1/2'
7 '-x, -x+y, z+1/2'
8 'x-y, -y, z+1/2'
9 'y, x, z+1/2'
10 'x-y, x, z+1/2'
11 'y, -x+y, z+1/2'
12 '-x, -y, z+1/2'
13 '-x, -x+y, -z'
14 'x-y, -y, -z'
15 'y, x, -z'
16 'x-y, x, -z'
17 'y, -x+y, -z'
18 '-x, -y, -z'
19 'x, x-y, z'
20 '-x+y, y, z'
21 '-y, -x, z'
22 '-x+y, -x, z'
23 '-y, x-y, z'
24 'x, y, z'
loop_
_atom_type_symbol
_atom_type_oxidation_number
Sn0+ 0
Fe0+ 0
loop_
_atom_site_label
_atom_site_type_symbol
_atom_site_symmetry_multiplicity
_atom_site_Wyckoff_symbol
_atom_site_fract_x
_atom_site_fract_y
_atom_site_fract_z
_atom_site_B_iso_or_equiv
_atom_site_occupancy
_atom_site_attached_hydrogens
Sn1 Sn0+ 2 c 0.3333 0.6667 0.25 . 1. 0
Fe1 Fe0+ 6 h 0.84 0.68 0.25 . 1. 0
#End of TTdata_108474-ICSD