
#(C) 2017 by FIZ Karlsruhe - Leibniz Institute for Information Infrastructure.  All rights reserved.
data_108924-ICSD
_database_code_ICSD 108924
_audit_creation_date 2007-04-01
_chemical_name_systematic 'Cadmium iodide'
_chemical_formula_structural 'Cd I2'
_chemical_formula_sum 'Cd1 I2'
_exptl_crystal_density_diffrn 5.71
_publ_section_title 'Crystal structures of three new Cd I2 polytypes'
loop_
_citation_id
_citation_journal_full
_citation_year
_citation_journal_volume
_citation_page_first
_citation_page_last
_citation_journal_id_ASTM
primary 'Zeitschrift fuer Kristallographie (1979-2010)' 1975 141 458 464 ZEKRDZ
loop_
_publ_author_name
'Jain, P.C.'
'Trigunayat, G.C.'
_cell_length_a 4.24
_cell_length_b 4.24
_cell_length_c 34.18
_cell_angle_alpha 90.
_cell_angle_beta 90.
_cell_angle_gamma 120.
_cell_volume 532.15
_cell_formula_units_Z 5
_symmetry_space_group_name_H-M 'P -3 m 1'
_symmetry_Int_Tables_number 164
loop_
_symmetry_equiv_pos_site_id
_symmetry_equiv_pos_as_xyz
1 'x-y, -y, -z'
2 '-x, -x+y, -z'
3 'y, x, -z'
4 'x-y, x, -z'
5 'y, -x+y, -z'
6 '-x, -y, -z'
7 '-x+y, y, z'
8 'x, x-y, z'
9 '-y, -x, z'
10 '-x+y, -x, z'
11 '-y, x-y, z'
12 'x, y, z'
loop_
_atom_type_symbol
_atom_type_oxidation_number
I1- -1
Cd2+ 2
loop_
_atom_site_label
_atom_site_type_symbol
_atom_site_symmetry_multiplicity
_atom_site_Wyckoff_symbol
_atom_site_fract_x
_atom_site_fract_y
_atom_site_fract_z
_atom_site_B_iso_or_equiv
_atom_site_occupancy
_atom_site_attached_hydrogens
I1 I1- 2 d 0.6667 0.3333 0.05 . 1. 0
I2 I1- 2 d 0.3333 0.6667 0.15 . 1. 0
I3 I1- 2 c 0 0 0.25 . 1. 0
I4 I1- 2 d 0.3333 0.6667 0.35 . 1. 0
I5 I1- 2 d 0.6667 0.3333 0.45 . 1. 0
Cd1 Cd2+ 2 c 0 0 0.1 . 1. 0
Cd2 Cd2+ 2 d 0.6667 0.3333 0.3 . 1. 0
Cd3 Cd2+ 1 b 0 0 0.5 . 1. 0
#End of TTdata_108924-ICSD