
#(C) 2017 by FIZ Karlsruhe - Leibniz Institute for Information Infrastructure.  All rights reserved.
data_109073-ICSD
_database_code_ICSD 109073
_audit_creation_date 2007-04-01
_chemical_name_systematic 'Copper selenate(VI) - HP'
_chemical_formula_structural 'Cu (Se O4)'
_chemical_formula_sum 'Cu1 O4 Se1'
_chemical_name_structure_type CrVO4
_exptl_crystal_density_diffrn 4.48
_publ_section_title
'Polymorphism in the selenates of Mg, Mn, Co and Cu at high pressure'
loop_
_citation_id
_citation_journal_full
_citation_year
_citation_journal_volume
_citation_page_first
_citation_page_last
_citation_journal_id_ASTM
primary

;
Zeitschrift fuer Kristallographie, Kristallgeometrie, Kristallphysik,
Kristallchemie (-144,1977)
; 1964 120 317 322 ZEKGAX
loop_
_publ_author_name
'Snyman, H.C.'
'Pistorius, C.W.F.T.'
_cell_length_a 5.42(1)
_cell_length_b 8.55(1)
_cell_length_c 6.61(1)
_cell_angle_alpha 90.
_cell_angle_beta 90.
_cell_angle_gamma 90.
_cell_volume 306.31
_cell_formula_units_Z 4
_symmetry_space_group_name_H-M 'C m c m'
_symmetry_Int_Tables_number 63
loop_
_symmetry_equiv_pos_site_id
_symmetry_equiv_pos_as_xyz
1 '-x, y, -z+1/2'
2 '-x, -y, z+1/2'
3 '-x, y, z'
4 '-x, -y, -z'
5 'x, -y, z+1/2'
6 'x, y, -z+1/2'
7 'x, -y, -z'
8 'x, y, z'
9 '-x+1/2, y+1/2, -z+1/2'
10 '-x+1/2, -y+1/2, z+1/2'
11 '-x+1/2, y+1/2, z'
12 '-x+1/2, -y+1/2, -z'
13 'x+1/2, -y+1/2, z+1/2'
14 'x+1/2, y+1/2, -z+1/2'
15 'x+1/2, -y+1/2, -z'
16 'x+1/2, y+1/2, z'
loop_
_atom_type_symbol
_atom_type_oxidation_number
Cu2+ 2
Se6+ 6
O2- -2
loop_
_atom_site_label
_atom_site_type_symbol
_atom_site_symmetry_multiplicity
_atom_site_Wyckoff_symbol
_atom_site_fract_x
_atom_site_fract_y
_atom_site_fract_z
_atom_site_B_iso_or_equiv
_atom_site_occupancy
_atom_site_attached_hydrogens
Cu1 Cu2+ 4 a 0 0 0 . 1. 0
Se1 Se6+ 4 c 0 0.35 0.25 . 1. 0
O1 O2- 8 f 0 0.25 0.02 . 1. 0
O2 O2- 8 g 0.25 0.472 0.25 . 1. 0
#End of TTdata_109073-ICSD