
#(C) 2017 by FIZ Karlsruhe - Leibniz Institute for Information Infrastructure.  All rights reserved.
data_109069-ICSD
_database_code_ICSD 109069
_audit_creation_date 2007-04-01
_chemical_name_systematic 'Copper selenate(VI)'
_chemical_formula_structural 'Cu (Se O4)'
_chemical_formula_sum 'Cu1 O4 Se1'
_chemical_name_structure_type CuSO4
_exptl_crystal_density_diffrn 4.09
_publ_section_title
'Polymorphism in the selenates of Mg, Mn, Co and Cu at high pressure'
loop_
_citation_id
_citation_journal_full
_citation_year
_citation_journal_volume
_citation_page_first
_citation_page_last
_citation_journal_id_ASTM
primary

;
Zeitschrift fuer Kristallographie, Kristallgeometrie, Kristallphysik,
Kristallchemie (-144,1977)
; 1964 120 317 322 ZEKGAX
loop_
_publ_author_name
'Snyman, H.C.'
'Pistorius, C.W.F.T.'
_cell_length_a 5.099(4)
_cell_length_b 9.390(6)
_cell_length_c 7.005(5)
_cell_angle_alpha 90.
_cell_angle_beta 90.
_cell_angle_gamma 90.
_cell_volume 335.4
_cell_formula_units_Z 4
_symmetry_space_group_name_H-M 'P b n m'
_symmetry_Int_Tables_number 62
loop_
_symmetry_equiv_pos_site_id
_symmetry_equiv_pos_as_xyz
1 '-x+1/2, y+1/2, z'
2 'x, y, -z+1/2'
3 'x+1/2, -y+1/2, z+1/2'
4 '-x, -y, -z'
5 'x+1/2, -y+1/2, -z'
6 '-x, -y, z+1/2'
7 '-x+1/2, y+1/2, -z+1/2'
8 'x, y, z'
loop_
_atom_type_symbol
_atom_type_oxidation_number
Cu2+ 2
Se6+ 6
O2- -2
loop_
_atom_site_label
_atom_site_type_symbol
_atom_site_symmetry_multiplicity
_atom_site_Wyckoff_symbol
_atom_site_fract_x
_atom_site_fract_y
_atom_site_fract_z
_atom_site_B_iso_or_equiv
_atom_site_occupancy
_atom_site_attached_hydrogens
Cu1 Cu2+ 4 a 0 0 0 . 1. 0
Se1 Se6+ 4 c 0.463 0.18 0.25 . 1. 0
O1 O2- 4 c 0.781 0.129 0.25 . 1. 0
O2 O2- 4 c 0.449 0.362 0.25 . 1. 0
O3 O2- 8 d 0.327 0.126 0.062 . 1. 0
#End of TTdata_109069-ICSD