
#(C) 2017 by FIZ Karlsruhe - Leibniz Institute for Information Infrastructure.  All rights reserved.
data_109138-ICSD
_database_code_ICSD 109138
_audit_creation_date 2007-04-01
_audit_update_record 2008-02-01
_chemical_name_systematic 'Magnesium yttrium (24/5)'
_chemical_formula_structural 'Mg24 Y5'
_chemical_formula_sum 'Mg24 Y5'
_chemical_name_structure_type Mn(alpha)-Mn(cI58)
_exptl_crystal_density_diffrn 2.4
_publ_section_title

;
Crystal structure of magnesium-rich compounds in the systems Er-Mg, Dy-Mg and
Y-Mg
;
loop_
_citation_id
_citation_journal_full
_citation_year
_citation_journal_volume
_citation_page_first
_citation_page_last
_citation_journal_id_ASTM
primary 'Dopovidi Akademii Nauk Ukrains'koi RSR' 1962 1962 1610 1612 DUKRA4
loop_
_publ_author_name
'Kripyakevich, P.I.'
'Evdokimenko, V.I.'
_cell_length_a 11.25
_cell_length_b 11.25
_cell_length_c 11.25
_cell_angle_alpha 90.
_cell_angle_beta 90.
_cell_angle_gamma 90.
_cell_volume 1423.83
_cell_formula_units_Z 2
_symmetry_space_group_name_H-M 'I -4 3 m'
_symmetry_Int_Tables_number 217
loop_
_symmetry_equiv_pos_site_id
_symmetry_equiv_pos_as_xyz
1 '-z, -y, x'
2 '-y, -x, z'
3 '-x, -z, y'
4 '-z, -x, y'
5 '-y, -z, x'
6 '-x, -y, z'
7 '-z, y, -x'
8 '-y, x, -z'
9 '-x, z, -y'
10 '-z, x, -y'
11 '-y, z, -x'
12 '-x, y, -z'
13 'z, -y, -x'
14 'y, -x, -z'
15 'x, -z, -y'
16 'z, -x, -y'
17 'y, -z, -x'
18 'x, -y, -z'
19 'z, y, x'
20 'y, x, z'
21 'x, z, y'
22 'z, x, y'
23 'y, z, x'
24 'x, y, z'
25 '-z+1/2, -y+1/2, x+1/2'
26 '-y+1/2, -x+1/2, z+1/2'
27 '-x+1/2, -z+1/2, y+1/2'
28 '-z+1/2, -x+1/2, y+1/2'
29 '-y+1/2, -z+1/2, x+1/2'
30 '-x+1/2, -y+1/2, z+1/2'
31 '-z+1/2, y+1/2, -x+1/2'
32 '-y+1/2, x+1/2, -z+1/2'
33 '-x+1/2, z+1/2, -y+1/2'
34 '-z+1/2, x+1/2, -y+1/2'
35 '-y+1/2, z+1/2, -x+1/2'
36 '-x+1/2, y+1/2, -z+1/2'
37 'z+1/2, -y+1/2, -x+1/2'
38 'y+1/2, -x+1/2, -z+1/2'
39 'x+1/2, -z+1/2, -y+1/2'
40 'z+1/2, -x+1/2, -y+1/2'
41 'y+1/2, -z+1/2, -x+1/2'
42 'x+1/2, -y+1/2, -z+1/2'
43 'z+1/2, y+1/2, x+1/2'
44 'y+1/2, x+1/2, z+1/2'
45 'x+1/2, z+1/2, y+1/2'
46 'z+1/2, x+1/2, y+1/2'
47 'y+1/2, z+1/2, x+1/2'
48 'x+1/2, y+1/2, z+1/2'
loop_
_atom_type_symbol
_atom_type_oxidation_number
Y0+ 0
Mg0+ 0
loop_
_atom_site_label
_atom_site_type_symbol
_atom_site_symmetry_multiplicity
_atom_site_Wyckoff_symbol
_atom_site_fract_x
_atom_site_fract_y
_atom_site_fract_z
_atom_site_B_iso_or_equiv
_atom_site_occupancy
_atom_site_attached_hydrogens
Y1 Y0+ 2 a 0 0 0 . 1. 0
Y2 Y0+ 8 c 0.317 0.317 0.317 . 1. 0
Mg1 Mg0+ 24 g 0.356 0.356 0.042 . 1. 0
Mg2 Mg0+ 24 g 0.089 0.089 0.278 . 1. 0
#End of TTdata_109138-ICSD