
#(C) 2017 by FIZ Karlsruhe - Leibniz Institute for Information Infrastructure.  All rights reserved.
data_109144-ICSD
_database_code_ICSD 109144
_audit_creation_date 2007-04-01
_chemical_name_systematic 'Thallium bromide - thin film'
_chemical_formula_structural 'Tl Br'
_chemical_formula_sum 'Br1 Tl1'
_chemical_name_structure_type TlI
_exptl_crystal_density_diffrn 6.94
_publ_section_title
'Zur Polymorphie der Thalliumhalogenide in Aufdampfschichten'
loop_
_citation_id
_citation_journal_full
_citation_year
_citation_journal_volume
_citation_page_first
_citation_page_last
_citation_journal_id_ASTM
primary 'Zeitschrift fuer Kristallographie (1979-2010)' 2004 219 348 358 ZEKRDZ
loop_
_publ_author_name
'Ungelenk, J.'
_cell_length_a 4.39(3)
_cell_length_b 12.5(1)
_cell_length_c 4.96(3)
_cell_angle_alpha 90
_cell_angle_beta 90
_cell_angle_gamma 90
_cell_volume 272.18
_cell_formula_units_Z 4
_symmetry_space_group_name_H-M 'C m c m'
_symmetry_Int_Tables_number 63
loop_
_symmetry_equiv_pos_site_id
_symmetry_equiv_pos_as_xyz
1 '-x, y, -z+1/2'
2 '-x, -y, z+1/2'
3 '-x, y, z'
4 '-x, -y, -z'
5 'x, -y, z+1/2'
6 'x, y, -z+1/2'
7 'x, -y, -z'
8 'x, y, z'
9 '-x+1/2, y+1/2, -z+1/2'
10 '-x+1/2, -y+1/2, z+1/2'
11 '-x+1/2, y+1/2, z'
12 '-x+1/2, -y+1/2, -z'
13 'x+1/2, -y+1/2, z+1/2'
14 'x+1/2, y+1/2, -z+1/2'
15 'x+1/2, -y+1/2, -z'
16 'x+1/2, y+1/2, z'
loop_
_atom_type_symbol
_atom_type_oxidation_number
Br1- -1
Tl1+ 1
loop_
_atom_site_label
_atom_site_type_symbol
_atom_site_symmetry_multiplicity
_atom_site_Wyckoff_symbol
_atom_site_fract_x
_atom_site_fract_y
_atom_site_fract_z
_atom_site_B_iso_or_equiv
_atom_site_occupancy
_atom_site_attached_hydrogens
Br1 Br1- 4 c 0 0.132 0.25 . 1. 0
Tl1 Tl1+ 4 c 0 0.386 0.25 . 1. 0
#End of TTdata_109144-ICSD