
#(C) 2017 by FIZ Karlsruhe - Leibniz Institute for Information Infrastructure.  All rights reserved.
data_109192-ICSD
_database_code_ICSD 109192
_audit_creation_date 2007-04-01
_chemical_name_systematic 'Scandium tantalate'
_chemical_formula_structural 'Sc (Ta O4)'
_chemical_formula_sum 'O4 Sc1 Ta1'
_chemical_name_structure_type Wolframite-NiWO4
_exptl_crystal_density_diffrn 6.9
_publ_section_title
'In Ta O4 und Ga Ta O4 mit geordneter und ungeordneter Metallverteilung'
loop_
_citation_id
_citation_journal_full
_citation_year
_citation_journal_volume
_citation_page_first
_citation_page_last
_citation_journal_id_ASTM
primary 'Zeitschrift fuer Anorganische und Allgemeine Chemie (1950) (DE)' 1962
310 89 106 ZAACAB
loop_
_publ_author_name
'Keller, C.'
_cell_length_a 5.118(1)
_cell_length_b 5.670(2)
_cell_length_c 4.809(1)
_cell_angle_alpha 90.
_cell_angle_beta 91.67(3)
_cell_angle_gamma 90.
_cell_volume 139.49
_cell_formula_units_Z 2
_symmetry_space_group_name_H-M 'P 1 2/a 1'
_symmetry_Int_Tables_number 13
loop_
_symmetry_equiv_pos_site_id
_symmetry_equiv_pos_as_xyz
1 'x+1/2, -y, z'
2 '-x, -y, -z'
3 '-x+1/2, y, -z'
4 'x, y, z'
loop_
_atom_type_symbol
_atom_type_oxidation_number
Sc3+ 3
Ta5+ 5
O2- -2
loop_
_atom_site_label
_atom_site_type_symbol
_atom_site_symmetry_multiplicity
_atom_site_Wyckoff_symbol
_atom_site_fract_x
_atom_site_fract_y
_atom_site_fract_z
_atom_site_B_iso_or_equiv
_atom_site_occupancy
_atom_site_attached_hydrogens
Sc1 Sc3+ 2 f 0.25 0.322 0.5 . 1. 0
Ta1 Ta5+ 2 e 0.25 0.826 0 . 1. 0
O1 O2- 4 g 0.438 0.102 0.213 . 1. 0
O2 O2- 4 g 0.902 0.383 0.265 . 1. 0
#End of TTdata_109192-ICSD