
#(C) 2017 by FIZ Karlsruhe - Leibniz Institute for Information Infrastructure.  All rights reserved.
data_109191-ICSD
_database_code_ICSD 109191
_audit_creation_date 2007-04-01
_chemical_name_systematic 'Scandium niobate'
_chemical_formula_structural 'Sc (Nb O4)'
_chemical_formula_sum 'Nb1 O4 Sc1'
_chemical_name_structure_type Wolframite-NiWO4
_exptl_crystal_density_diffrn 4.82
_publ_section_title 'Ueber ternaere Oxide der Niobs und Tantals vom Typ A B O4'
loop_
_citation_id
_citation_journal_full
_citation_year
_citation_journal_volume
_citation_page_first
_citation_page_last
_citation_journal_id_ASTM
primary 'Zeitschrift fuer Anorganische und Allgemeine Chemie (1950) (DE)' 1962
318 89 106 ZAACAB
loop_
_publ_author_name
'Keller, C.'
_cell_length_a 5.101(1)
_cell_length_b 5.665(2)
_cell_length_c 4.818(2)
_cell_angle_alpha 90.
_cell_angle_beta 91.58(3)
_cell_angle_gamma 90.
_cell_volume 139.17
_cell_formula_units_Z 2
_symmetry_space_group_name_H-M 'P 1 2/a 1'
_symmetry_Int_Tables_number 13
loop_
_symmetry_equiv_pos_site_id
_symmetry_equiv_pos_as_xyz
1 'x+1/2, -y, z'
2 '-x, -y, -z'
3 '-x+1/2, y, -z'
4 'x, y, z'
loop_
_atom_type_symbol
_atom_type_oxidation_number
Sc3+ 3
Nb5+ 5
O2- -2
loop_
_atom_site_label
_atom_site_type_symbol
_atom_site_symmetry_multiplicity
_atom_site_Wyckoff_symbol
_atom_site_fract_x
_atom_site_fract_y
_atom_site_fract_z
_atom_site_B_iso_or_equiv
_atom_site_occupancy
_atom_site_attached_hydrogens
Sc1 Sc3+ 2 f 0.25 0.3175 0.5 . 1. 0
Nb1 Nb5+ 2 e 0.25 0.822 0 . 1. 0
O1 O2- 4 g 0.438 0.102 0.217 . 1. 0
O2 O2- 4 g 0.901 0.382 0.26 . 1. 0
#End of TTdata_109191-ICSD