
#(C) 2017 by FIZ Karlsruhe - Leibniz Institute for Information Infrastructure.  All rights reserved.
data_109190-ICSD
_database_code_ICSD 109190
_audit_creation_date 2007-04-01
_chemical_name_systematic 'Yttrium tantalate'
_chemical_formula_structural 'Y (Ta O4)'
_chemical_formula_sum 'O4 Ta1 Y1'
_chemical_name_structure_type YNbO4(mS24)
_exptl_crystal_density_diffrn 7.72
_publ_section_title 'Ueber ternaere Oxide der Niobs und Tantals vom Typ A B O4'
loop_
_citation_id
_citation_journal_full
_citation_year
_citation_journal_volume
_citation_page_first
_citation_page_last
_citation_journal_id_ASTM
primary 'Zeitschrift fuer Anorganische und Allgemeine Chemie (1950) (DE)' 1962
318 89 106 ZAACAB
loop_
_publ_author_name
'Keller, C.'
_cell_length_a 5.239(3)
_cell_length_b 10.893(9)
_cell_length_c 5.056(3)
_cell_angle_alpha 90.
_cell_angle_beta 95.52
_cell_angle_gamma 90.
_cell_volume 287.2
_cell_formula_units_Z 4
_symmetry_space_group_name_H-M 'I 1 2/a 1'
_symmetry_Int_Tables_number 15
loop_
_symmetry_equiv_pos_site_id
_symmetry_equiv_pos_as_xyz
1 'x+1/2, -y, z'
2 '-x, -y, -z'
3 '-x+1/2, y, -z'
4 'x, y, z'
5 'x, -y+1/2, z+1/2'
6 '-x+1/2, -y+1/2, -z+1/2'
7 '-x, y+1/2, -z+1/2'
8 'x+1/2, y+1/2, z+1/2'
loop_
_atom_type_symbol
_atom_type_oxidation_number
Y3+ 3
Ta5+ 5
O2- -2
loop_
_atom_site_label
_atom_site_type_symbol
_atom_site_symmetry_multiplicity
_atom_site_Wyckoff_symbol
_atom_site_fract_x
_atom_site_fract_y
_atom_site_fract_z
_atom_site_B_iso_or_equiv
_atom_site_occupancy
_atom_site_attached_hydrogens
Y1 Y3+ 4 e 0.25 0.622 0 . 1. 0
Ta1 Ta5+ 4 e 0.25 0.145 0 . 1. 0
O1 O2- 8 f 0.09 0.461 0.252 . 1. 0
O2 O2- 8 f -.003 0.717 0.29 . 1. 0
#End of TTdata_109190-ICSD