
#(C) 2017 by FIZ Karlsruhe - Leibniz Institute for Information Infrastructure.  All rights reserved.
data_109206-ICSD
_database_code_ICSD 109206
_audit_creation_date 2007-04-01
_chemical_name_systematic 'Iron arsenide sulfide (1/1/1)'
_chemical_formula_structural 'Fe As S'
_chemical_formula_sum 'As1 Fe1 S1'
_chemical_name_structure_type FeAsS-CoSb2
_chemical_name_mineral Arsenopyrite
_exptl_crystal_density_diffrn 6.24
_publ_section_title 'Arsenopyrite crystal-chemical relations'
loop_
_citation_id
_citation_journal_full
_citation_year
_citation_journal_volume
_citation_page_first
_citation_page_last
_citation_journal_id_ASTM
primary 'American Mineralogist' 1961 46 1448 1469 AMMIAY
loop_
_publ_author_name
'Morimoto, N.'
'Clark, L.A.'
_cell_length_a 9.53
_cell_length_b 5.66
_cell_length_c 6.43
_cell_angle_alpha 90.
_cell_angle_beta 90.
_cell_angle_gamma 90.
_cell_volume 346.83
_cell_formula_units_Z 8
_symmetry_space_group_name_H-M 'B 1 21/d 1'
_symmetry_Int_Tables_number 14
_refine_ls_R_factor_all 0.3
loop_
_symmetry_equiv_pos_site_id
_symmetry_equiv_pos_as_xyz
1 'x+3/4, -y+1/2, z+3/4'
2 '-x+1/4, y+1/2, -z+1/4'
3 '-x, -y, -z'
4 'x, y, z'
5 'x+1/4, -y+1/2, z+1/4'
6 '-x+3/4, y+1/2, -z+3/4'
7 '-x+1/2, -y, -z+1/2'
8 'x+1/2, y, z+1/2'
loop_
_atom_type_symbol
_atom_type_oxidation_number
Fe3+ 3
As2- -2
S1- -1
loop_
_atom_site_label
_atom_site_type_symbol
_atom_site_symmetry_multiplicity
_atom_site_Wyckoff_symbol
_atom_site_fract_x
_atom_site_fract_y
_atom_site_fract_z
_atom_site_B_iso_or_equiv
_atom_site_occupancy
_atom_site_attached_hydrogens
Fe1 Fe3+ 8 e -.006 0 0.295 .19 1. 0
As1 As2- 8 e 0.133 0.128 -.013 .31 1. 0
S1 S1- 8 e 0.166 0.132 0.499 .03 1. 0
#End of TTdata_109206-ICSD