
#(C) 2017 by FIZ Karlsruhe - Leibniz Institute for Information Infrastructure.  All rights reserved.
data_1165-ICSD
_database_code_ICSD 1165
_audit_creation_date 1980-01-01
_audit_update_record 2011-08-01
_chemical_name_systematic 'Catena-di-mue-chloro-dichloroosmium(IV) - HT'
_chemical_formula_structural 'Os Cl4'
_chemical_formula_sum 'Cl4 Os1'
_exptl_crystal_density_diffrn 4.69
_publ_section_title
'Structure of the high-temperature form of osmium(IV) chloride'
loop_
_citation_id
_citation_journal_full
_citation_year
_citation_journal_volume
_citation_page_first
_citation_page_last
_citation_journal_id_ASTM
primary 'Inorganic Chemistry' 1977 16 1865 1867 INOCAJ
loop_
_publ_author_name
'Cotton, F.A.'
'Rice, C.E.'
_cell_length_a 7.929(2)
_cell_length_b 8.326(2)
_cell_length_c 3.560(1)
_cell_angle_alpha 90.
_cell_angle_beta 90.
_cell_angle_gamma 90.
_cell_volume 235.02
_cell_formula_units_Z 2
_symmetry_space_group_name_H-M 'C m m m'
_symmetry_Int_Tables_number 65
_refine_ls_R_factor_all 0.248
loop_
_symmetry_equiv_pos_site_id
_symmetry_equiv_pos_as_xyz
1 'x, -y, z'
2 '-x, y, z'
3 'x, y, -z'
4 '-x, -y, -z'
5 '-x, y, -z'
6 'x, -y, -z'
7 '-x, -y, z'
8 'x, y, z'
9 'x+1/2, -y+1/2, z'
10 '-x+1/2, y+1/2, z'
11 'x+1/2, y+1/2, -z'
12 '-x+1/2, -y+1/2, -z'
13 '-x+1/2, y+1/2, -z'
14 'x+1/2, -y+1/2, -z'
15 '-x+1/2, -y+1/2, z'
16 'x+1/2, y+1/2, z'
loop_
_atom_type_symbol
_atom_type_oxidation_number
Os4+ 4
Cl1- -1
loop_
_atom_site_label
_atom_site_type_symbol
_atom_site_symmetry_multiplicity
_atom_site_Wyckoff_symbol
_atom_site_fract_x
_atom_site_fract_y
_atom_site_fract_z
_atom_site_B_iso_or_equiv
_atom_site_occupancy
_atom_site_attached_hydrogens
Os1 Os4+ 2 a 0 0 0 . 1. 0
Cl1 Cl1- 4 g 0.2852(5) 0 0 . 1. 0
Cl2 Cl1- 4 j 0 0.1894(5) 0.5 . 1. 0
loop_
_atom_site_aniso_label
_atom_site_aniso_type_symbol
_atom_site_aniso_beta_11
_atom_site_aniso_beta_22
_atom_site_aniso_beta_33
_atom_site_aniso_beta_12
_atom_site_aniso_beta_13
_atom_site_aniso_beta_23
Os1 Os4+ 0.00507(9) 0.00447(8) 0.0201(5) 0 0 0
Cl1 Cl1- 0.0061(5) 0.0103(5) 0.038(3) 0 0 0
Cl2 Cl1- 0.0099(5) 0.0048(4) 0.028(2) 0 0 0
#End of TTdata_1165-ICSD