
data_12104-ICSD
_database_code_ICSD 12104
_audit_creation_date 1980-01-01
_audit_update_record 2000-07-15
_chemical_name_systematic 'Copper tetraoxodibismuthate(III)'
_chemical_formula_structural 'Cu Bi2 O4'
_chemical_formula_sum 'Bi2 Cu1 O4'
_exptl_crystal_density_diffrn 8.66
_cell_length_a 8.484
_cell_length_b 8.484
_cell_length_c 5.813
_cell_angle_alpha 90.
_cell_angle_beta 90.
_cell_angle_gamma 90.
_cell_volume 418.41
_cell_formula_units_Z 4
_symmetry_space_group_name_H-M 'I 4'
_symmetry_Int_Tables_number 79
_refine_ls_R_factor_all 0.094
loop_
_symmetry_equiv_pos_site_id
_symmetry_equiv_pos_as_xyz
1 'y, -x, z'
2 '-y, x, z'
3 '-x, -y, z'
4 'x, y, z'
5 'y+1/2, -x+1/2, z+1/2'
6 '-y+1/2, x+1/2, z+1/2'
7 '-x+1/2, -y+1/2, z+1/2'
8 'x+1/2, y+1/2, z+1/2'
loop_
_atom_type_symbol
_atom_type_oxidation_number
Cu2+ 2
Bi3+ 3
O2- -2
loop_
_atom_site_label
_atom_site_type_symbol
_atom_site_symmetry_multiplicity
_atom_site_Wyckoff_symbol
_atom_site_fract_x
_atom_site_fract_y
_atom_site_fract_z
_atom_site_B_iso_or_equiv
_atom_site_occupancy
_atom_site_attached_hydrogens
Cu1 Cu2+ 2 a 0 0 0.1763 0.17 1. 0
Cu2 Cu2+ 2 a 0.5 0.5 0.171 0.05 1. 0
Bi1 Bi3+ 8 c 0.1683 0.3316(1) 0 0.15 1. 0
O1 O2- 8 c 0.098(6) 0.203 0.654(5) 0.49 1. 0
O2 O2- 8 c 0.202(1) 0.101(8) 0.161(6) 0.61 1. 0
