
#(C) 2017 by FIZ Karlsruhe - Leibniz Institute for Information Infrastructure.  All rights reserved.
data_12113-ICSD
_database_code_ICSD 12113
_audit_creation_date 1980-01-01
_audit_update_record 1985-07-05
_chemical_name_systematic 'Cesium trans-tetraaquapentabromovanadium(III)'
_chemical_formula_structural 'Cs2 V Br5 (H2 O)4'
_chemical_formula_sum 'H8 Br5 Cs2 O4 V1'
_chemical_name_structure_type Cs2VCl5(H2O)4
_exptl_crystal_density_diffrn 3.16
_publ_section_title

;
Crystal and molecular structures of aquahalogenovanadium (III) complexes. Part
II. X-ray crystal structure of dicesium
trans-tetrakisaquadichlorovanadium(III) trichloride, and the isomorphous
bromo-compound
;
loop_
_citation_id
_citation_journal_full
_citation_year
_citation_journal_volume
_citation_page_first
_citation_page_last
_citation_journal_id_ASTM
primary

;
Journal of the Chemical Society. Dalton Transactions, Inorganic Chemistry
(1972-)
; 1976 1976 1741 1743 JCDTBI
loop_
_publ_author_name
'Donovan, W.F.'
'Podmore, L.P.'
'Smith, P.W.'
_cell_length_a 18.484(9)
_cell_length_b 6.423(5)
_cell_length_c 7.266(6)
_cell_angle_alpha 90.
_cell_angle_beta 106.1(5)
_cell_angle_gamma 90.
_cell_volume 828.81
_cell_formula_units_Z 2
_symmetry_space_group_name_H-M 'C 1 2/m 1'
_symmetry_Int_Tables_number 12
_refine_ls_R_factor_all 0.104
loop_
_symmetry_equiv_pos_site_id
_symmetry_equiv_pos_as_xyz
1 '-x, y, -z'
2 '-x, -y, -z'
3 'x, -y, z'
4 'x, y, z'
5 '-x+1/2, y+1/2, -z'
6 '-x+1/2, -y+1/2, -z'
7 'x+1/2, -y+1/2, z'
8 'x+1/2, y+1/2, z'
loop_
_atom_type_symbol
_atom_type_oxidation_number
V3+ 3
Cs1+ 1
Br1- -1
O2- -2
H1+ 1
loop_
_atom_site_label
_atom_site_type_symbol
_atom_site_symmetry_multiplicity
_atom_site_Wyckoff_symbol
_atom_site_fract_x
_atom_site_fract_y
_atom_site_fract_z
_atom_site_B_iso_or_equiv
_atom_site_occupancy
_atom_site_attached_hydrogens
V1 V3+ 2 a 0 0 0 1.01 1. 0
Cs1 Cs1+ 4 i 0.2982(1) 0 0.2452(1) 1.19 1. 0
Br1 Br1- 4 i 0.1111(1) 0 -.1325(2) 1.55 1. 0
Br2 Br1- 4 i 0.3070(1) 0 0.7473(2) 1.73 1. 0
Br3 Br1- 2 d 0 0.5 0.5 1.57 1. 0
O1 O2- 8 j 0.0506(4) 0.227(2) 0.193(1) 1.55 1. 0
#End of TTdata_12113-ICSD