
#(C) 2017 by FIZ Karlsruhe - Leibniz Institute for Information Infrastructure.  All rights reserved.
data_130014-ICSD
_database_code_ICSD 130014
_audit_creation_date 2005-10-01
_audit_update_record 2012-08-01
_chemical_name_systematic 'Cadmium sulfate(VI) - H2'
_chemical_formula_structural 'Cd (S O4)'
_chemical_formula_sum 'Cd1 O4 S1'
_chemical_name_structure_type KAl(MoO4)2
_exptl_crystal_density_diffrn 4.17
_cell_measurement_temperature 1123.
_publ_section_title 'Zum Hochtemperaturverhalten von Cd S O4'
loop_
_citation_id
_citation_journal_full
_citation_year
_citation_journal_volume
_citation_page_first
_citation_page_last
_citation_journal_id_ASTM
primary 'Zeitschrift fuer Anorganische und Allgemeine Chemie (1950) (DE)' 1979
455 16 28 ZAACAB
loop_
_publ_author_name
'Spiess, M.'
'Gruehn, R.'
_cell_length_a 5.012
_cell_length_b 5.012
_cell_length_c 7.637
_cell_angle_alpha 90.
_cell_angle_beta 90.
_cell_angle_gamma 120.
_cell_volume 166.14
_cell_formula_units_Z 2
_symmetry_space_group_name_H-M 'P -3 m 1'
_symmetry_Int_Tables_number 164
_refine_ls_R_factor_all 0.164
loop_
_symmetry_equiv_pos_site_id
_symmetry_equiv_pos_as_xyz
1 'x-y, -y, -z'
2 '-x, -x+y, -z'
3 'y, x, -z'
4 'x-y, x, -z'
5 'y, -x+y, -z'
6 '-x, -y, -z'
7 '-x+y, y, z'
8 'x, x-y, z'
9 '-y, -x, z'
10 '-x+y, -x, z'
11 '-y, x-y, z'
12 'x, y, z'
loop_
_atom_type_symbol
_atom_type_oxidation_number
Cd2+ 2
S6+ 6
O2- -2
loop_
_atom_site_label
_atom_site_type_symbol
_atom_site_symmetry_multiplicity
_atom_site_Wyckoff_symbol
_atom_site_fract_x
_atom_site_fract_y
_atom_site_fract_z
_atom_site_B_iso_or_equiv
_atom_site_occupancy
_atom_site_attached_hydrogens
Cd1 Cd2+ 1 a 0 0 0 6. 1. 0
Cd2 Cd2+ 1 b 0 0 0.5 6. 1. 0
S1 S6+ 2 d 0.6667 0.3333 0.22 6. 1. 0
O1 O2- 2 d 0.3333 0.6667 0 6. 1. 0
O2 O2- 6 i 0.2 -.2 0.294 6. 1. 0
#End of TTdata_130014-ICSD