
data_14000-ICSD
_database_code_ICSD 14000
_audit_creation_date 1980-01-01
_chemical_name_systematic 'Silver phosphate'
_chemical_formula_structural 'Ag3 P O4'
_chemical_formula_sum 'Ag3 O4 P1'
_chemical_name_structure_type Ag3PO4
_exptl_crystal_density_diffrn 6.35
_cell_length_a 6.026(5)
_cell_length_b 6.026(5)
_cell_length_c 6.026(5)
_cell_angle_alpha 90.
_cell_angle_beta 90.
_cell_angle_gamma 90.
_cell_volume 218.82
_cell_formula_units_Z 2
_symmetry_space_group_name_H-M 'P -4 3 n'
_symmetry_Int_Tables_number 218
_refine_ls_R_factor_all 0.042
loop_
_symmetry_equiv_pos_site_id
_symmetry_equiv_pos_as_xyz
1 '-z+1/2, y+1/2, -x+1/2'
2 '-y+1/2, x+1/2, -z+1/2'
3 '-x+1/2, z+1/2, -y+1/2'
4 'z+1/2, -y+1/2, -x+1/2'
5 'y+1/2, -x+1/2, -z+1/2'
6 'x+1/2, -z+1/2, -y+1/2'
7 '-z+1/2, -y+1/2, x+1/2'
8 '-y+1/2, -x+1/2, z+1/2'
9 '-x+1/2, -z+1/2, y+1/2'
10 'z+1/2, y+1/2, x+1/2'
11 'y+1/2, x+1/2, z+1/2'
12 'x+1/2, z+1/2, y+1/2'
13 '-z, -x, y'
14 '-y, -z, x'
15 '-x, -y, z'
16 'z, -x, -y'
17 'y, -z, -x'
18 'x, -y, -z'
19 '-z, x, -y'
20 '-y, z, -x'
21 '-x, y, -z'
22 'z, x, y'
23 'y, z, x'
24 'x, y, z'
loop_
_atom_type_symbol
_atom_type_oxidation_number
Ag1+ 1
P5+ 5
O2- -2
loop_
_atom_site_label
_atom_site_type_symbol
_atom_site_symmetry_multiplicity
_atom_site_Wyckoff_symbol
_atom_site_fract_x
_atom_site_fract_y
_atom_site_fract_z
_atom_site_B_iso_or_equiv
_atom_site_occupancy
_atom_site_attached_hydrogens
Ag1 Ag1+ 6 d 0.25 0 0.5 . 1. 0
P1 P5+ 2 a 0 0 0 . 1. 0
O1 O2- 8 e 0.1486(9) 0.1486 0.1486 . 1. 0
loop_
_atom_site_aniso_label
_atom_site_aniso_type_symbol
_atom_site_aniso_beta_11
_atom_site_aniso_beta_22
_atom_site_aniso_beta_33
_atom_site_aniso_beta_12
_atom_site_aniso_beta_13
_atom_site_aniso_beta_23
Ag1 Ag1+ 0.0221(4) 0.0103(3) 0.0103(2) 0 0 0
P1 P5+ 0.0065(4) 0.0065(4) 0.0065(4) 0 0 0
O1 O2- 0.0112(9) 0.0112(9) 0.0112(9) -.0029(10) -.0029(10) -.0029(10)
