
#(C) 2017 by FIZ Karlsruhe - Leibniz Institute for Information Infrastructure.  All rights reserved.
data_14032-ICSD
_database_code_ICSD 14032
_audit_creation_date 1980-01-01
_chemical_name_systematic 'Hexabromoselenic(IV) acid octahydrate'
_chemical_formula_structural '(H5 O2)2 Se Br6 (H2 O)4'
_chemical_formula_sum 'H18 Br6 O8 Se1'
_exptl_crystal_density_diffrn 2.7
_cell_measurement_temperature 173.
_publ_section_title

;
Solvatisierte Halogenochalkogen(IV)saeuren, I Darstellung und Struktur des
Hexabromoselen(IV)saeure-Hydrats (H5 O2)2 Se Br6 (H2 O)4
;
loop_
_citation_id
_citation_journal_full
_citation_year
_citation_journal_volume
_citation_page_first
_citation_page_last
_citation_journal_id_ASTM
primary

;
Zeitschrift fuer Naturforschung, Teil B. Anorganische Chemie, Organische
Chemie (33,1978-41,1986)
; 1979 34 1666 1670 ZNBAD2
loop_
_publ_author_name
'Krebs, B.'
'Hein, M.'
_cell_length_a 10.394(7)
_cell_length_b 10.288(4)
_cell_length_c 8.366(3)
_cell_angle_alpha 90.
_cell_angle_beta 104.11(4)
_cell_angle_gamma 90.
_cell_volume 867.61
_cell_formula_units_Z 2
_symmetry_space_group_name_H-M 'C 1 2/m 1'
_symmetry_Int_Tables_number 12
_refine_ls_R_factor_all 0.067
loop_
_symmetry_equiv_pos_site_id
_symmetry_equiv_pos_as_xyz
1 '-x, y, -z'
2 '-x, -y, -z'
3 'x, -y, z'
4 'x, y, z'
5 '-x+1/2, y+1/2, -z'
6 '-x+1/2, -y+1/2, -z'
7 'x+1/2, -y+1/2, z'
8 'x+1/2, y+1/2, z'
loop_
_atom_type_symbol
_atom_type_oxidation_number
Se4+ 4
Br1- -1
O2- -2
H1+ 1
loop_
_atom_site_label
_atom_site_type_symbol
_atom_site_symmetry_multiplicity
_atom_site_Wyckoff_symbol
_atom_site_fract_x
_atom_site_fract_y
_atom_site_fract_z
_atom_site_B_iso_or_equiv
_atom_site_occupancy
_atom_site_attached_hydrogens
Se1 Se4+ 2 a 0 0 0 . 1. 0
Br1 Br1- 4 i 0.0433(3) 0 0.3169(3) . 1. 0
Br2 Br1- 4 i 0.2506(2) 0 0.0231(3) . 1. 0
Br3 Br1- 4 g 0 0.2482(2) 0 . 1. 0
O1 O2- 8 j 0.3123(11) 0.2488(11) 0.3025(15) . 1. 0
O2 O2- 8 j 0.1181(11) 0.3762(10) 0.4138(14) . 1. 0
loop_
_atom_site_aniso_label
_atom_site_aniso_type_symbol
_atom_site_aniso_B_11
_atom_site_aniso_B_22
_atom_site_aniso_B_33
_atom_site_aniso_B_12
_atom_site_aniso_B_13
_atom_site_aniso_B_23
Se1 Se4+ 1.0(1) 1.1(1) 1.1(1) 0 0.5(1) 0
Br1 Br1- 1.7(1) 1.7(1) 0.8(1) 0 0.3(1) 0
Br2 Br1- 1.0(1) 1.8(1) 2.0(1) 0 0.6(1) 0
Br3 Br1- 1.6(1) 1.0(1) 1.5(1) 0 0.5(1) 0
O1 O2- 2.6(5) 4.1(6) 2.0(6) 0.4(6) 0.1(4) 0.1(5)
O2 O2- 2.6(5) 3.2(5) 2.6(6) -1.3(5) 0.8(4) 0.2(5)
#End of TTdata_14032-ICSD