
data_1413-ICSD
_database_code_ICSD 1413
_audit_creation_date 1980-01-01
_audit_update_record 2010-02-01
_chemical_name_systematic 'Dirubidium plumbate'
_chemical_formula_structural 'Rb2 (Pb O3)'
_chemical_formula_sum 'O3 Pb1 Rb2'
_chemical_name_structure_type Na2SiO3
_exptl_crystal_density_diffrn 5.8
_cell_length_a 10.838
_cell_length_b 7.494
_cell_length_c 6.011
_cell_angle_alpha 90.
_cell_angle_beta 90.
_cell_angle_gamma 90.
_cell_volume 488.21
_cell_formula_units_Z 4
_symmetry_space_group_name_H-M 'C m c 21'
_symmetry_Int_Tables_number 36
_refine_ls_R_factor_all 0.1189
loop_
_symmetry_equiv_pos_site_id
_symmetry_equiv_pos_as_xyz
1 'x, -y, z+1/2'
2 '-x, -y, z+1/2'
3 '-x, y, z'
4 'x, y, z'
5 'x+1/2, -y+1/2, z+1/2'
6 '-x+1/2, -y+1/2, z+1/2'
7 '-x+1/2, y+1/2, z'
8 'x+1/2, y+1/2, z'
loop_
_atom_type_symbol
_atom_type_oxidation_number
Pb4+ 4
Rb1+ 1
O2- -2
loop_
_atom_site_label
_atom_site_type_symbol
_atom_site_symmetry_multiplicity
_atom_site_Wyckoff_symbol
_atom_site_fract_x
_atom_site_fract_y
_atom_site_fract_z
_atom_site_B_iso_or_equiv
_atom_site_occupancy
_atom_site_attached_hydrogens
Pb1 Pb4+ 4 a 0 0.0924(5) 0.25 1.6 1. 0
Rb1 Rb1+ 8 b 0.3378(8) 0.144(1) 0.25 2.7 1. 0
O1 O2- 8 b 0.123(6) 0 0 3.7 1. 0
O2 O2- 4 a 0 0.39(2) 0.19 4. 1. 0
