
#(C) 2017 by FIZ Karlsruhe - Leibniz Institute for Information Infrastructure.  All rights reserved.
data_14164-ICSD
_database_code_ICSD 14164
_audit_creation_date 1980-12-31
_chemical_name_systematic 'Palladium aluminium iodide (5/1/2)'
_chemical_formula_structural 'Pd5 Al I2'
_chemical_formula_sum 'Al1 I2 Pd5'
_exptl_crystal_density_diffrn 8.41
_publ_section_title 'Neue PdX AlY-Phasen und die Verbindung Pd5 Al I2'
loop_
_citation_id
_citation_journal_full
_citation_year
_citation_journal_volume
_citation_page_first
_citation_page_last
_citation_journal_id_ASTM
primary 'Zeitschrift fuer Anorganische und Allgemeine Chemie (1950) (DE)' 1980
462 49 56 ZAACAB
loop_
_publ_author_name
'Merker, H.B.'
'Schaefer, H.'
'Krebs, B.'
_cell_length_a 4.052(1)
_cell_length_b 4.052(1)
_cell_length_c 19.559(4)
_cell_angle_alpha 90.
_cell_angle_beta 90.
_cell_angle_gamma 90.
_cell_volume 321.13
_cell_formula_units_Z 2
_symmetry_space_group_name_H-M 'I 4/m m m'
_symmetry_Int_Tables_number 139
_refine_ls_R_factor_all 0.043
loop_
_symmetry_equiv_pos_site_id
_symmetry_equiv_pos_as_xyz
1 'y, x, -z'
2 '-y, -x, -z'
3 '-y, x, -z'
4 'y, -x, -z'
5 '-x, y, -z'
6 'x, -y, -z'
7 'x, y, -z'
8 '-x, -y, -z'
9 '-y, -x, z'
10 'y, x, z'
11 'y, -x, z'
12 '-y, x, z'
13 'x, -y, z'
14 '-x, y, z'
15 '-x, -y, z'
16 'x, y, z'
17 'y+1/2, x+1/2, -z+1/2'
18 '-y+1/2, -x+1/2, -z+1/2'
19 '-y+1/2, x+1/2, -z+1/2'
20 'y+1/2, -x+1/2, -z+1/2'
21 '-x+1/2, y+1/2, -z+1/2'
22 'x+1/2, -y+1/2, -z+1/2'
23 'x+1/2, y+1/2, -z+1/2'
24 '-x+1/2, -y+1/2, -z+1/2'
25 '-y+1/2, -x+1/2, z+1/2'
26 'y+1/2, x+1/2, z+1/2'
27 'y+1/2, -x+1/2, z+1/2'
28 '-y+1/2, x+1/2, z+1/2'
29 'x+1/2, -y+1/2, z+1/2'
30 '-x+1/2, y+1/2, z+1/2'
31 '-x+1/2, -y+1/2, z+1/2'
32 'x+1/2, y+1/2, z+1/2'
loop_
_atom_type_symbol
_atom_type_oxidation_number
Pd0+ 0
Al0+ 0
I0+ 0
loop_
_atom_site_label
_atom_site_type_symbol
_atom_site_symmetry_multiplicity
_atom_site_Wyckoff_symbol
_atom_site_fract_x
_atom_site_fract_y
_atom_site_fract_z
_atom_site_B_iso_or_equiv
_atom_site_occupancy
_atom_site_attached_hydrogens
Pd1 Pd0+ 2 a 0 0 0 . 1. 0
Pd2 Pd0+ 8 g 0 0.5 0.08894(9) . 1. 0
Al1 Al0+ 2 b 0 0 0.5 . 1. 0
I1 I0+ 4 e 0 0 0.18277(9) . 1. 0
loop_
_atom_site_aniso_label
_atom_site_aniso_type_symbol
_atom_site_aniso_B_11
_atom_site_aniso_B_22
_atom_site_aniso_B_33
_atom_site_aniso_B_12
_atom_site_aniso_B_13
_atom_site_aniso_B_23
Pd1 Pd0+ 1.13(8) 1.13 0.92(11) 0 0 0
Pd2 Pd0+ 0.55(6) 1.00(7) 1.51(8) 0 0 0
Al1 Al0+ 1.15(31) 1.15 1.18(48) 0 0 0
I1 I0+ 0.91(5) 0.91 0.92(7) 0 0 0
#End of TTdata_14164-ICSD