
#(C) 2017 by FIZ Karlsruhe - Leibniz Institute for Information Infrastructure.  All rights reserved.
data_14265-ICSD
_database_code_ICSD 14265
_audit_creation_date 1980-01-01
_audit_update_record 2007-04-01
_chemical_name_systematic 'Indium telluride (4/3)'
_chemical_formula_structural 'In4 Te3'
_chemical_formula_sum 'In4 Te3'
_chemical_name_structure_type In3Se4
_exptl_crystal_density_diffrn 6.32
_publ_section_title 'The crystal structure of tetraindium tritelluride'
loop_
_citation_id
_citation_journal_full
_citation_year
_citation_journal_volume
_citation_page_first
_citation_page_last
_citation_journal_id_ASTM
primary 'Acta Crystallographica B (24,1968-38,1982)' 1973 29 2483 2488 ACBCAR
loop_
_publ_author_name
'Hogg, J.H.C.'
'Sutherland, H.H.'
_cell_length_a 15.63
_cell_length_b 12.756
_cell_length_c 4.441
_cell_angle_alpha 90.
_cell_angle_beta 90.
_cell_angle_gamma 90.
_cell_volume 885.43
_cell_formula_units_Z 4
_symmetry_space_group_name_H-M 'P n n m'
_symmetry_Int_Tables_number 58
_refine_ls_R_factor_all 0.08
loop_
_symmetry_equiv_pos_site_id
_symmetry_equiv_pos_as_xyz
1 'x+1/2, -y+1/2, z+1/2'
2 '-x+1/2, y+1/2, z+1/2'
3 'x, y, -z'
4 '-x, -y, -z'
5 '-x+1/2, y+1/2, -z+1/2'
6 'x+1/2, -y+1/2, -z+1/2'
7 '-x, -y, z'
8 'x, y, z'
loop_
_atom_type_symbol
_atom_type_oxidation_number
In1+ 1.5
Te2- -2
loop_
_atom_site_label
_atom_site_type_symbol
_atom_site_symmetry_multiplicity
_atom_site_Wyckoff_symbol
_atom_site_fract_x
_atom_site_fract_y
_atom_site_fract_z
_atom_site_B_iso_or_equiv
_atom_site_occupancy
_atom_site_attached_hydrogens
In1 In1+ 4 g 0.7154(2) 0.3449(2) 0 . 1. 0
In2 In1+ 4 g 0.8169(2) 0.5248(2) 0 . 1. 0
In3 In1+ 4 g 0.9640(2) 0.6459(2) 0 . 1. 0
In4 In1+ 4 g 0.4276(2) 0.3981(3) 0 . 1. 0
Te1 Te2- 4 g 0.9035(1) 0.8605(2) 0 . 1. 0
Te2 Te2- 4 g 0.7739(1) 0.1374(2) 0 . 1. 0
Te3 Te2- 4 g 0.4223(1) 0.1481(2) 0 . 1. 0
loop_
_atom_site_aniso_label
_atom_site_aniso_type_symbol
_atom_site_aniso_beta_11
_atom_site_aniso_beta_22
_atom_site_aniso_beta_33
_atom_site_aniso_beta_12
_atom_site_aniso_beta_13
_atom_site_aniso_beta_23
In1 In1+ 0.0225(10) 0.0130(9) 0.0162(11) 0.0055(19) 0 0
In2 In1+ 0.0242(11) 0.0179(10) 0.0253(12) 0.0124(21) 0 0
In3 In1+ 0.0195(10) 0.0139(8) 0.014(1) 0.0034(18) 0 0
In4 In1+ 0.0307(13) 0.0244(12) 0.0293(15) 0.0007(24) 0 0
Te1 Te2- 0.0182(8) 0.0112(7) 0.0124(9) 0.0000(16) 0 0
Te2 Te2- 0.0172(9) 0.0132(8) 0.0124(10) -.0001(16) 0 0
Te3 Te2- 0.0169(8) 0.0122(8) 0.0106(9) -.0041(15) 0 0
#End of TTdata_14265-ICSD