
#(C) 2017 by FIZ Karlsruhe - Leibniz Institute for Information Infrastructure.  All rights reserved.
data_14276-ICSD
_database_code_ICSD 14276
_audit_creation_date 1980-01-01
_audit_update_record 2010-08-01
_chemical_name_systematic Hexachlorotriborazine
_chemical_formula_structural '(B N)3 Cl6'
_chemical_formula_sum 'B3 Cl6 N3'
_chemical_name_structure_type (BN)3Cl6
_exptl_crystal_density_diffrn 2.05
_publ_section_title 'Die Kristallstruktur von Hexachlorborazol'
loop_
_citation_id
_citation_journal_full
_citation_year
_citation_journal_volume
_citation_page_first
_citation_page_last
_citation_journal_id_ASTM
primary 'Acta Crystallographica B (24,1968-38,1982)' 1971 27 1997 2002 ACBCAR
loop_
_publ_author_name
'Mueller, U.'
_cell_length_a 8.835
_cell_length_b 8.835
_cell_length_c 10.313
_cell_angle_alpha 90.
_cell_angle_beta 90.
_cell_angle_gamma 120.
_cell_volume 697.15
_cell_formula_units_Z 3
_symmetry_space_group_name_H-M 'R 3 H'
_symmetry_Int_Tables_number 146
_refine_ls_R_factor_all 0.045
loop_
_symmetry_equiv_pos_site_id
_symmetry_equiv_pos_as_xyz
1 '-x+y, -x, z'
2 '-y, x-y, z'
3 'x, y, z'
4 '-x+y+2/3, -x+1/3, z+1/3'
5 '-y+2/3, x-y+1/3, z+1/3'
6 'x+2/3, y+1/3, z+1/3'
7 '-x+y+1/3, -x+2/3, z+2/3'
8 '-y+1/3, x-y+2/3, z+2/3'
9 'x+1/3, y+2/3, z+2/3'
loop_
_atom_type_symbol
_atom_type_oxidation_number
Cl1- -1
N1- -1
B3+ 3
loop_
_atom_site_label
_atom_site_type_symbol
_atom_site_symmetry_multiplicity
_atom_site_Wyckoff_symbol
_atom_site_fract_x
_atom_site_fract_y
_atom_site_fract_z
_atom_site_B_iso_or_equiv
_atom_site_occupancy
_atom_site_attached_hydrogens
Cl1 Cl1- 9 b 0.1396(13) 0.4041(9) -.008(4) . 1. 0
Cl2 Cl1- 9 b 0.4075(8) 0.2654(9) -.003(3) . 1. 0
N1 N1- 9 b 0.062(2) 0.182(2) 0 2.5 1. 0
B1 B3+ 9 b 0.181(4) 0.117(3) 0.003(3) 2.6 1. 0
loop_
_atom_site_aniso_label
_atom_site_aniso_type_symbol
_atom_site_aniso_beta_11
_atom_site_aniso_beta_22
_atom_site_aniso_beta_33
_atom_site_aniso_beta_12
_atom_site_aniso_beta_13
_atom_site_aniso_beta_23
Cl1 Cl1- 0.0178(18) 0.0117(14) 0.0115(19) 0.0074(13) 0.0022(17) 0.0036(19)
Cl2 Cl1- 0.0092(12) 0.0130(13) 0.0156(24) 0.0042(10) 0.0005(17) 0.0003(16)
#End of TTdata_14276-ICSD