
data_14285-ICSD
_database_code_ICSD 14285
_audit_creation_date 1980-01-01
_audit_update_record 2013-02-01
_chemical_name_systematic 'Tricopper(I) tetrathioarsenate(V)'
_chemical_formula_structural 'Cu3 (As S4)'
_chemical_formula_sum 'As1 Cu3 S4'
_chemical_name_structure_type Enargite-Cu3AsS4
_chemical_name_mineral Enargite
_exptl_crystal_density_diffrn 4.46
_cell_length_a 7.407(1)
_cell_length_b 6.436(1)
_cell_length_c 6.154(1)
_cell_angle_alpha 90.
_cell_angle_beta 90.
_cell_angle_gamma 90.
_cell_volume 293.37
_cell_formula_units_Z 2
_symmetry_space_group_name_H-M 'P m n 21'
_symmetry_Int_Tables_number 31
_refine_ls_R_factor_all 0.08
loop_
_symmetry_equiv_pos_site_id
_symmetry_equiv_pos_as_xyz
1 'x+1/2, -y, z+1/2'
2 '-x+1/2, -y, z+1/2'
3 '-x, y, z'
4 'x, y, z'
loop_
_atom_type_symbol
_atom_type_oxidation_number
As5+ 5
Cu1+ 1
S2- -2
loop_
_atom_site_label
_atom_site_type_symbol
_atom_site_symmetry_multiplicity
_atom_site_Wyckoff_symbol
_atom_site_fract_x
_atom_site_fract_y
_atom_site_fract_z
_atom_site_B_iso_or_equiv
_atom_site_occupancy
_atom_site_attached_hydrogens
As1 As5+ 2 a 0 0.8268(5) 0 0 1. 0
Cu1 Cu1+ 2 a 0 0.1514(7) 0.4983(11) 0.8125 1. 0
Cu2 Cu1+ 4 b 0.2466(4) 0.3255(4) 0.9866(8) 0.9309 1. 0
S1 S2- 2 a 0 0.8226(13) 0.6454(15) 0 1. 0
S2 S2- 2 a 0 0.1436(13) 0.1166(15) 0.0793 1. 0
S3 S2- 4 b 0.2598(7) 0.3364(8) 0.6188(10) 0 1. 0
