
data_14399-ICSD
_database_code_ICSD 14399
_audit_creation_date 1984-09-04
_audit_update_record 2017-08-01
_chemical_name_systematic 'Aluminium carbide nitride (6/3/2)'
_chemical_formula_structural 'Al6 C3 N2'
_chemical_formula_sum 'C3 Al6 N2'
_exptl_crystal_density_diffrn 3.08
_cell_length_a 13.47
_cell_length_b 13.47
_cell_length_c 13.47
_cell_angle_alpha 13.85
_cell_angle_beta 13.85
_cell_angle_gamma 13.85
_cell_volume 121.88
_cell_formula_units_Z 1
_symmetry_space_group_name_H-M 'R 3 m R'
_symmetry_Int_Tables_number 160
_refine_ls_R_factor_all 0.18
loop_
_symmetry_equiv_pos_site_id
_symmetry_equiv_pos_as_xyz
1 'z, y, x'
2 'z, x, y'
3 'x, z, y'
4 'y, z, x'
5 'y, x, z'
6 'x, y, z'
loop_
_atom_type_symbol
_atom_type_oxidation_number
Al0+ 0
N0+ 0
C0+ 0
loop_
_atom_site_label
_atom_site_type_symbol
_atom_site_symmetry_multiplicity
_atom_site_Wyckoff_symbol
_atom_site_fract_x
_atom_site_fract_y
_atom_site_fract_z
_atom_site_B_iso_or_equiv
_atom_site_occupancy
_atom_site_attached_hydrogens
Al1 Al0+ 1 a 0.6910(8) 0.6910(8) 0.6910(8) 0.2(4) 1. 0
Al2 Al0+ 1 a 0.0850(8) 0.0850(8) 0.0850(8) 0.7(4) 1. 0
Al3 Al0+ 1 a 0.8069(8) 0.8069(8) 0.8069(8) 0.6(4) 1. 0
Al4 Al0+ 1 a 0.1911(8) 0.1911(8) 0.1911(8) 0.1(4) 1. 0
Al5 Al0+ 1 a 0.9137(8) 0.9137(8) 0.9137(8) 0.8(4) 1. 0
Al6 Al0+ 1 a 0.3092(8) 0.3092(8) 0.3092(8) 0.4(4) 1. 0
N1 N0+ 1 a 0.7406(15) 0.7406(15) 0.7406(15) 0.2(6) 1. 0
N2 N0+ 1 a 0.2597(15) 0.2597(15) 0.2597(15) 1.0(6) 1. 0
C1 C0+ 1 a 0.0000(15) 0.0000(15) 0.0000(15) 0.2(6) 1. 0
C2 C0+ 1 a 0.1351(15) 0.1351(15) 0.1351(15) 0.6(6) 1. 0
C3 C0+ 1 a 0.8641(15) 0.8641(15) 0.8641(15) 1.2(6) 1. 0
