
#(C) 2017 by FIZ Karlsruhe - Leibniz Institute for Information Infrastructure.  All rights reserved.
data_150142-ICSD
_database_code_ICSD 150142
_audit_creation_date 2006-04-01
_chemical_name_systematic 'Potassium silver (1/2)'
_chemical_formula_structural 'K Ag2'
_chemical_formula_sum 'Ag2 K1'
_chemical_name_structure_type Laves(2H)-MgZn2
_exptl_crystal_density_diffrn 6.6
_cell_measurement_pressure 7000000.
_publ_section_title

;
High-pressure synthesis of an alkali metal - transition metal Laves phase: K
Ag2
;
loop_
_citation_id
_citation_journal_full
_citation_year
_citation_journal_volume
_citation_page_first
_citation_page_last
_citation_journal_id_ASTM
primary 'Journal of Solid State Chemistry' 1997 130 311 315 JSSCBI
loop_
_publ_author_name
'Hasegawa, M.'
'Atou, T.'
'Badding, J.V.'
_cell_length_a 5.5891(5)
_cell_length_b 5.5891(5)
_cell_length_c 9.4761(1)
_cell_angle_alpha 90.
_cell_angle_beta 90.
_cell_angle_gamma 120.
_cell_volume 256.36
_cell_formula_units_Z 4
_symmetry_space_group_name_H-M 'P 63/m m c'
_symmetry_Int_Tables_number 194
_refine_ls_R_factor_all 0.034
loop_
_symmetry_equiv_pos_site_id
_symmetry_equiv_pos_as_xyz
1 'x, x-y, -z+1/2'
2 '-x+y, y, -z+1/2'
3 '-y, -x, -z+1/2'
4 '-x+y, -x, -z+1/2'
5 '-y, x-y, -z+1/2'
6 'x, y, -z+1/2'
7 '-x, -x+y, z+1/2'
8 'x-y, -y, z+1/2'
9 'y, x, z+1/2'
10 'x-y, x, z+1/2'
11 'y, -x+y, z+1/2'
12 '-x, -y, z+1/2'
13 '-x, -x+y, -z'
14 'x-y, -y, -z'
15 'y, x, -z'
16 'x-y, x, -z'
17 'y, -x+y, -z'
18 '-x, -y, -z'
19 'x, x-y, z'
20 '-x+y, y, z'
21 '-y, -x, z'
22 '-x+y, -x, z'
23 '-y, x-y, z'
24 'x, y, z'
loop_
_atom_type_symbol
_atom_type_oxidation_number
K0+ 0
Ag0+ 0
loop_
_atom_site_label
_atom_site_type_symbol
_atom_site_symmetry_multiplicity
_atom_site_Wyckoff_symbol
_atom_site_fract_x
_atom_site_fract_y
_atom_site_fract_z
_atom_site_B_iso_or_equiv
_atom_site_occupancy
_atom_site_attached_hydrogens
K1 K0+ 4 f 0.3333 0.6667 0.07(1) 0.019(8) 1. 0
Ag1 Ag0+ 2 a 0 0 0 0.031(3) 1. 0
Ag2 Ag0+ 6 h 0.8286(4) 0.6572(8) 0.25 0.006(1) 1. 0
#End of TTdata_150142-ICSD