
#(C) 2017 by FIZ Karlsruhe - Leibniz Institute for Information Infrastructure.  All rights reserved.
data_15038-ICSD
_database_code_ICSD 15038
_audit_creation_date 1980-01-01
_chemical_name_systematic 'Chromium telluride (2/3)'
_chemical_formula_structural 'Cr2 Te3'
_chemical_formula_sum 'Cr2 Te3'
_chemical_name_structure_type Cr2S3(hP20)
_exptl_crystal_density_diffrn 6.66
_cell_measurement_temperature 293.
_publ_section_title 'The magnetic structure of Cr2 Te3, Cr3 Te4, and Cr5 Te6'
loop_
_citation_id
_citation_journal_full
_citation_year
_citation_journal_volume
_citation_page_first
_citation_page_last
_citation_journal_id_ASTM
primary 'Acta Chemica Scandinavica (1-27,1973-42,1988)' 1970 24 3495 3509 ACSAA4
loop_
_publ_author_name
'Andresen, A.F.'
_cell_length_a 6.814(6)
_cell_length_b 6.814(6)
_cell_length_c 12.073(12)
_cell_angle_alpha 90.
_cell_angle_beta 90.
_cell_angle_gamma 120.
_cell_volume 485.46
_cell_formula_units_Z 4
_symmetry_space_group_name_H-M 'P -3 1 c'
_symmetry_Int_Tables_number 163
_refine_ls_R_factor_all 0.079
loop_
_symmetry_equiv_pos_site_id
_symmetry_equiv_pos_as_xyz
1 '-x+y, y, -z+1/2'
2 'x, x-y, -z+1/2'
3 '-y, -x, -z+1/2'
4 'x-y, x, -z'
5 'y, -x+y, -z'
6 '-x, -y, -z'
7 'x-y, -y, z+1/2'
8 '-x, -x+y, z+1/2'
9 'y, x, z+1/2'
10 '-x+y, -x, z'
11 '-y, x-y, z'
12 'x, y, z'
loop_
_atom_type_symbol
_atom_type_oxidation_number
Cr3+ 3
Te2- -2
loop_
_atom_site_label
_atom_site_type_symbol
_atom_site_symmetry_multiplicity
_atom_site_Wyckoff_symbol
_atom_site_fract_x
_atom_site_fract_y
_atom_site_fract_z
_atom_site_B_iso_or_equiv
_atom_site_occupancy
_atom_site_attached_hydrogens
Cr1 Cr3+ 2 c 0.3333 0.6667 0.25 1.42 1. 0
Cr2 Cr3+ 2 b 0 0 0 1.42 1. 0
Cr3 Cr3+ 4 f 0.3333 0.6667 0.000(2) 1.42 1. 0
Te1 Te2- 12 i 0.340(2) 0.003(2) 0.372(1) 0.82 1. 0
#End of TTdata_15038-ICSD