
#(C) 2017 by FIZ Karlsruhe - Leibniz Institute for Information Infrastructure.  All rights reserved.
data_150552-ICSD
_database_code_ICSD 150552
_audit_creation_date 2006-04-01
_chemical_name_systematic 'Gold manganese (1/3)'
_chemical_formula_structural 'Au Mn3'
_chemical_formula_sum 'Au1 Mn3'
_exptl_crystal_density_diffrn 9.53
_publ_section_title 'The structure of Au Mn3'
loop_
_citation_id
_citation_journal_full
_citation_year
_citation_journal_volume
_citation_page_first
_citation_page_last
_citation_journal_id_ASTM
primary 'Acta Crystallographica (1,1948-23,1967)' 1965 19 476 477 ACCRA9
loop_
_publ_author_name
'Gaunt, P.'
'Eden, A.'
_cell_length_a 4.706
_cell_length_b 4.706
_cell_length_c 8.539
_cell_angle_alpha 90.
_cell_angle_beta 90.
_cell_angle_gamma 90.
_cell_volume 189.11
_cell_formula_units_Z 3
_symmetry_space_group_name_H-M 'P 4/m m m'
_symmetry_Int_Tables_number 123
loop_
_symmetry_equiv_pos_site_id
_symmetry_equiv_pos_as_xyz
1 'y, x, -z'
2 '-y, -x, -z'
3 '-y, x, -z'
4 'y, -x, -z'
5 '-x, y, -z'
6 'x, -y, -z'
7 'x, y, -z'
8 '-x, -y, -z'
9 '-y, -x, z'
10 'y, x, z'
11 'y, -x, z'
12 '-y, x, z'
13 'x, -y, z'
14 '-x, y, z'
15 '-x, -y, z'
16 'x, y, z'
loop_
_atom_type_symbol
_atom_type_oxidation_number
Au0+ 0
Mn0+ 0
loop_
_atom_site_label
_atom_site_type_symbol
_atom_site_symmetry_multiplicity
_atom_site_Wyckoff_symbol
_atom_site_fract_x
_atom_site_fract_y
_atom_site_fract_z
_atom_site_B_iso_or_equiv
_atom_site_occupancy
_atom_site_attached_hydrogens
Au1 Au0+ 1 a 0 0 0 . 1. 0
Au2 Au0+ 2 e 0.5 0 0.5 . 1. 0
Mn1 Mn0+ 1 c 0.5 0.5 0 . 1. 0
Mn2 Mn0+ 2 h 0.5 0.5 0.333(7) . 1. 0
Mn3 Mn0+ 2 g 0 0 0.333(7) . 1. 0
Mn4 Mn0+ 4 i 0.5 0 0.833(7) . 1. 0
#End of TTdata_150552-ICSD