
#(C) 2017 by FIZ Karlsruhe - Leibniz Institute for Information Infrastructure.  All rights reserved.
data_15073-ICSD
_database_code_ICSD 15073
_audit_creation_date 1980-01-01
_audit_update_record 2012-02-01
_chemical_name_systematic 'Antimony phosphate(V)'
_chemical_formula_structural 'Sb (P O4)'
_chemical_formula_sum 'O4 P1 Sb1'
_chemical_name_structure_type SbPO4
_exptl_crystal_density_diffrn 4.45
_publ_section_title 'The crystal structure of Sb P O4'
loop_
_citation_id
_citation_journal_full
_citation_year
_citation_journal_volume
_citation_page_first
_citation_page_last
_citation_journal_id_ASTM
primary 'Acta Chemica Scandinavica (1-27,1973-42,1988)' 1970 24 320 328 ACSAA4
loop_
_publ_author_name
'Kinberger, B.'
_cell_length_a 5.0868(6)
_cell_length_b 6.7547(7)
_cell_length_c 4.7247(5)
_cell_angle_alpha 90.
_cell_angle_beta 94.66(1)
_cell_angle_gamma 90.
_cell_volume 161.8
_cell_formula_units_Z 2
_symmetry_space_group_name_H-M 'P 1 21/m 1'
_symmetry_Int_Tables_number 11
_refine_ls_R_factor_all 0.074
loop_
_symmetry_equiv_pos_site_id
_symmetry_equiv_pos_as_xyz
1 'x, -y+1/2, z'
2 '-x, -y, -z'
3 '-x, y+1/2, -z'
4 'x, y, z'
loop_
_atom_type_symbol
_atom_type_oxidation_number
Sb3+ 3
P5+ 5
O2- -2
loop_
_atom_site_label
_atom_site_type_symbol
_atom_site_symmetry_multiplicity
_atom_site_Wyckoff_symbol
_atom_site_fract_x
_atom_site_fract_y
_atom_site_fract_z
_atom_site_B_iso_or_equiv
_atom_site_occupancy
_atom_site_attached_hydrogens
Sb1 Sb3+ 2 e 0.1802(2) 0.25 0.2053(2) 0.43 1. 0
P1 P5+ 2 e 0.6110(7) 0.25 0.7223(7) 0.36 1. 0
O1 O2- 2 e 0.3346(22) 0.25 0.8332(21) 0.65 1. 0
O2 O2- 2 e 0.5546(24) 0.25 0.3933(25) 0.85 1. 0
O3 O2- 4 f 0.7692(19) 0.0700(15) 0.8183(22) 1.33 1. 0
#End of TTdata_15073-ICSD