
#(C) 2017 by FIZ Karlsruhe - Leibniz Institute for Information Infrastructure.  All rights reserved.
data_150878-ICSD
_database_code_ICSD 150878
_audit_creation_date 2006-04-01
_chemical_name_systematic 'Niobium tin (3/1)'
_chemical_formula_structural 'Nb3 Sn'
_chemical_formula_sum 'Nb3 Sn1'
_exptl_crystal_density_diffrn 8.96
_cell_measurement_temperature 4.5
_publ_section_title
'Neutron scattering study of the lattice dynamical phase transition in Nb3 Sn'
loop_
_citation_id
_citation_journal_full
_citation_year
_citation_journal_volume
_citation_page_first
_citation_page_last
_citation_journal_id_ASTM
primary 'Physical Review, Serie 3. B - Condensed Matter (18,1978-)' 1971 4 2957
2963 PRBMDO
loop_
_publ_author_name
'Shirane, G.'
'Axe, J.D.'
_cell_length_a 5.293
_cell_length_b 5.293
_cell_length_c 5.26
_cell_angle_alpha 90.
_cell_angle_beta 90.
_cell_angle_gamma 90.
_cell_volume 147.36
_cell_formula_units_Z 2
_symmetry_space_group_name_H-M 'P 42/m m c'
_symmetry_Int_Tables_number 131
loop_
_symmetry_equiv_pos_site_id
_symmetry_equiv_pos_as_xyz
1 'y, x, z+1/2'
2 '-y, -x, z+1/2'
3 '-x, y, z'
4 'x, -y, z'
5 '-y, x, -z+1/2'
6 'y, -x, -z+1/2'
7 'x, y, -z'
8 '-x, -y, -z'
9 '-y, -x, -z+1/2'
10 'y, x, -z+1/2'
11 'x, -y, -z'
12 '-x, y, -z'
13 'y, -x, z+1/2'
14 '-y, x, z+1/2'
15 '-x, -y, z'
16 'x, y, z'
loop_
_atom_type_symbol
_atom_type_oxidation_number
Sn0+ 0
Nb0+ 0
loop_
_atom_site_label
_atom_site_type_symbol
_atom_site_symmetry_multiplicity
_atom_site_Wyckoff_symbol
_atom_site_fract_x
_atom_site_fract_y
_atom_site_fract_z
_atom_site_B_iso_or_equiv
_atom_site_occupancy
_atom_site_attached_hydrogens
Sn1 Sn0+ 2 d 0 0.5 0.5 . 1. 0
Nb1 Nb0+ 2 e 0 0 0.25 . 1. 0
Nb2 Nb0+ 4 m 0.2469(5) 0.5 0 . 1. 0
#End of TTdata_150878-ICSD