
data_15100-ICSD
_database_code_ICSD 15100
_audit_creation_date 1980-01-01
_audit_update_record 1989-08-02
_chemical_name_systematic 'Rubidium oxocuprate(I)'
_chemical_formula_structural 'Rb Cu O'
_chemical_formula_sum 'Cu1 O1 Rb1'
_chemical_name_structure_type KCuO
_exptl_crystal_density_diffrn 4.13
_cell_length_a 9.56
_cell_length_b 9.56
_cell_length_c 5.81
_cell_angle_alpha 90.
_cell_angle_beta 90.
_cell_angle_gamma 90.
_cell_volume 531.
_cell_formula_units_Z 8
_symmetry_space_group_name_H-M 'I -4'
_symmetry_Int_Tables_number 82
loop_
_symmetry_equiv_pos_site_id
_symmetry_equiv_pos_as_xyz
1 '-y, x, -z'
2 'y, -x, -z'
3 '-x, -y, z'
4 'x, y, z'
5 '-y+1/2, x+1/2, -z+1/2'
6 'y+1/2, -x+1/2, -z+1/2'
7 '-x+1/2, -y+1/2, z+1/2'
8 'x+1/2, y+1/2, z+1/2'
loop_
_atom_type_symbol
_atom_type_oxidation_number
Rb1+ 1
Cu1+ 1
O2- -2
loop_
_atom_site_label
_atom_site_type_symbol
_atom_site_symmetry_multiplicity
_atom_site_Wyckoff_symbol
_atom_site_fract_x
_atom_site_fract_y
_atom_site_fract_z
_atom_site_B_iso_or_equiv
_atom_site_occupancy
_atom_site_attached_hydrogens
Rb1 Rb1+ 8 g 0.18 0 0.25 . 1. 0
Cu1 Cu1+ 8 g 0.35 0.147 0.75 . 1. 0
O1 O2- 8 g 0.18 0 0.75 . 1. 0
