
data_15102-ICSD
_database_code_ICSD 15102
_audit_creation_date 1980-01-01
_audit_update_record 1987-06-02
_chemical_name_systematic 'Sodium pentaoxoplumbate'
_chemical_formula_structural 'Na6 Pb O5'
_chemical_formula_sum 'Na6 O5 Pb1'
_chemical_name_structure_type Na6PbO5
_exptl_crystal_density_diffrn 4.29
_cell_length_a 7.707
_cell_length_b 7.707
_cell_length_c 5.545
_cell_angle_alpha 90.
_cell_angle_beta 90.
_cell_angle_gamma 90.
_cell_volume 329.36
_cell_formula_units_Z 2
_symmetry_space_group_name_H-M 'I 4 m m'
_symmetry_Int_Tables_number 107
_refine_ls_R_factor_all 0.102
loop_
_symmetry_equiv_pos_site_id
_symmetry_equiv_pos_as_xyz
1 '-y, x, z'
2 'y, -x, z'
3 '-y, -x, z'
4 'y, x, z'
5 'x, -y, z'
6 '-x, y, z'
7 '-x, -y, z'
8 'x, y, z'
9 '-y+1/2, x+1/2, z+1/2'
10 'y+1/2, -x+1/2, z+1/2'
11 '-y+1/2, -x+1/2, z+1/2'
12 'y+1/2, x+1/2, z+1/2'
13 'x+1/2, -y+1/2, z+1/2'
14 '-x+1/2, y+1/2, z+1/2'
15 '-x+1/2, -y+1/2, z+1/2'
16 'x+1/2, y+1/2, z+1/2'
loop_
_atom_type_symbol
_atom_type_oxidation_number
Pb4+ 4
O2- -2
Na1+ 1
loop_
_atom_site_label
_atom_site_type_symbol
_atom_site_symmetry_multiplicity
_atom_site_Wyckoff_symbol
_atom_site_fract_x
_atom_site_fract_y
_atom_site_fract_z
_atom_site_B_iso_or_equiv
_atom_site_occupancy
_atom_site_attached_hydrogens
Pb1 Pb4+ 2 a 0 0 0.06 . 1. 0
O1 O2- 2 a 0 0 0.45 . 1. 0
O2 O2- 8 d 0.272 0 0 . 1. 0
Na1 Na1+ 4 b 0 0.5 0.25 . 1. 0
Na2 Na1+ 8 c 0.293 0.293 -.01 . 1. 0
