
#(C) 2017 by FIZ Karlsruhe - Leibniz Institute for Information Infrastructure.  All rights reserved.
data_151400-ICSD
_database_code_ICSD 151400
_audit_creation_date 2006-10-01
_audit_update_record 2007-08-01
_chemical_name_systematic 'Iron(III) chloride'
_chemical_formula_structural 'Fe Cl3'
_chemical_formula_sum 'Cl3 Fe1'
_chemical_name_structure_type BiI3
_exptl_crystal_density_diffrn 3.09
_publ_section_title 'The crystal structure of ferric chloride'
loop_
_citation_id
_citation_journal_full
_citation_year
_citation_journal_volume
_citation_page_first
_citation_page_last
_citation_journal_id_ASTM
primary

;
Zeitschrift fuer Kristallographie, Kristallgeometrie, Kristallphysik,
Kristallchemie (-144,1977)
; 1932 83 35 41 ZEKGAX
loop_
_publ_author_name
'Wooster, N.'
_cell_length_a 6.69
_cell_length_b 6.69
_cell_length_c 6.69
_cell_angle_alpha 52.5
_cell_angle_beta 52.5
_cell_angle_gamma 52.5
_cell_volume 174.44
_cell_formula_units_Z 2
_symmetry_space_group_name_H-M 'R -3 R'
_symmetry_Int_Tables_number 148
loop_
_symmetry_equiv_pos_site_id
_symmetry_equiv_pos_as_xyz
1 '-z, -x, -y'
2 '-y, -z, -x'
3 '-x, -y, -z'
4 'z, x, y'
5 'y, z, x'
6 'x, y, z'
loop_
_atom_type_symbol
_atom_type_oxidation_number
Fe3+ 3
Cl1- -1
loop_
_atom_site_label
_atom_site_type_symbol
_atom_site_symmetry_multiplicity
_atom_site_Wyckoff_symbol
_atom_site_fract_x
_atom_site_fract_y
_atom_site_fract_z
_atom_site_B_iso_or_equiv
_atom_site_occupancy
_atom_site_attached_hydrogens
Fe1 Fe3+ 2 c 0.333 0.333 0.333 . 1. 0
Cl1 Cl1- 6 f -0.256 0.41 0.077 . 1. 0
#End of TTdata_151400-ICSD