
data_151889-ICSD
_database_code_ICSD 151889
_audit_creation_date 2006-10-01
_audit_update_record 2014-08-01
_chemical_name_systematic 'Mercury bromide - IV'
_chemical_formula_structural 'Hg Br2'
_chemical_formula_sum 'Br2 Hg1'
_chemical_name_structure_type HgBr2
_exptl_crystal_density_diffrn 8.02
_cell_measurement_pressure 5400000.
_cell_length_a 6.7569(3)
_cell_length_b 6.7569(3)
_cell_length_c 5.6589(9)
_cell_angle_alpha 90.
_cell_angle_beta 90.
_cell_angle_gamma 120.
_cell_volume 223.75
_cell_formula_units_Z 3
_symmetry_space_group_name_H-M 'P 3'
_symmetry_Int_Tables_number 143
_refine_ls_R_factor_all 0.025
loop_
_symmetry_equiv_pos_site_id
_symmetry_equiv_pos_as_xyz
1 '-x+y, -x, z'
2 '-y, x-y, z'
3 'x, y, z'
loop_
_atom_type_symbol
_atom_type_oxidation_number
Hg2+ 2
Br1- -1
loop_
_atom_site_label
_atom_site_type_symbol
_atom_site_symmetry_multiplicity
_atom_site_Wyckoff_symbol
_atom_site_fract_x
_atom_site_fract_y
_atom_site_fract_z
_atom_site_B_iso_or_equiv
_atom_site_occupancy
_atom_site_attached_hydrogens
Hg1 Hg2+ 1 a 0 0 0.4699(7) 0.0336(18) 1. 0
Hg2 Hg2+ 1 c 0.6667 0.3333 0.4329(7) 0.0336(18) 1. 0
Hg3 Hg2+ 1 b 0.3333 0.6667 0.6000(11) 0.0336(18) 1. 0
Br1 Br1- 3 d 0.676(2) 0.698(2) 0.216(2) 0.0190(17) 1. 0
Br2 Br1- 3 d 0.3470(2) 0.2969(2) 0.7161(7) 0.0190(17) 1. 0
