
data_152133-ICSD
_database_code_ICSD 152133
_audit_creation_date 2006-10-01
_chemical_name_systematic 'Zirconium rhodium tin (1/1/1)'
_chemical_formula_structural 'Zr Rh Sn'
_chemical_formula_sum 'Rh1 Sn1 Zr1'
_chemical_name_structure_type Mg2Ga
_exptl_crystal_density_diffrn 9.23
_cell_length_a 7.334(1)
_cell_length_b 7.334(1)
_cell_length_c 7.210(1)
_cell_angle_alpha 90.
_cell_angle_beta 90.
_cell_angle_gamma 120.
_cell_volume 335.85
_cell_formula_units_Z 6
_symmetry_space_group_name_H-M 'P -6 2 c'
_symmetry_Int_Tables_number 190
_refine_ls_R_factor_all 0.0174
loop_
_symmetry_equiv_pos_site_id
_symmetry_equiv_pos_as_xyz
1 '-x, -x+y, -z'
2 'x-y, -y, -z'
3 'y, x, -z'
4 '-x, -x+y, z+1/2'
5 'x-y, -y, z+1/2'
6 'y, x, z+1/2'
7 '-x+y, -x, -z+1/2'
8 '-y, x-y, -z+1/2'
9 'x, y, -z+1/2'
10 '-x+y, -x, z'
11 '-y, x-y, z'
12 'x, y, z'
loop_
_atom_type_symbol
_atom_type_oxidation_number
Zr0+ 0
Rh0+ 0
Sn0+ 0
loop_
_atom_site_label
_atom_site_type_symbol
_atom_site_symmetry_multiplicity
_atom_site_Wyckoff_symbol
_atom_site_fract_x
_atom_site_fract_y
_atom_site_fract_z
_atom_site_B_iso_or_equiv
_atom_site_occupancy
_atom_site_attached_hydrogens
Zr1 Zr0+ 6 h 0.5941(1) 0.9826(1) 0.75 0.0057(2) 1. 0
Rh1 Rh0+ 4 f 0.6667 0.3333 0.9666(1) 0.0062(2) 1. 0
Rh2 Rh0+ 2 b 0 0 0.75 0.0056(2) 1. 0
Sn1 Sn0+ 6 g 0.27000(7) 0 0 0.0056(1) 1. 0
loop_
_atom_site_aniso_label
_atom_site_aniso_type_symbol
_atom_site_aniso_U_11
_atom_site_aniso_U_22
_atom_site_aniso_U_33
_atom_site_aniso_U_12
_atom_site_aniso_U_13
_atom_site_aniso_U_23
Zr1 Zr0+ 0.0061(4) 0.0070(3) 0.0052(4) 0.0041(3) 0. 0.
Rh1 Rh0+ 0.0052(2) 0.0052(2) 0.0082(3) 0.0026(1) 0. 0.
Rh2 Rh0+ 0.0051(3) 0.0051(3) 0.0065(5) 0.0026(1) 0. 0.
Sn1 Sn0+ 0.0053(2) 0.0053(2) 0.0063(3) 0.0026(1) 0.0000(1) 0.0000(1)
