
#(C) 2017 by FIZ Karlsruhe - Leibniz Institute for Information Infrastructure.  All rights reserved.
data_15224-ICSD
_database_code_ICSD 15224
_audit_creation_date 1980-01-01
_audit_update_record 2015-02-01
_chemical_name_systematic 'Ammonium catena-(bis(mue-chromato) diamminezincate'
_chemical_formula_structural '(N H4)2 Zn (N H3)2 (Cr O4)2'
_chemical_formula_sum 'H14 Cr2 N4 O8 Zn1'
_chemical_name_structure_type (NH4)2Zn(NH3)2(CrO4)2
_exptl_crystal_density_diffrn 2.32
_publ_section_title

;
The crystal structure of the ammonium salt of
catena-di-mue-chromato-diamminezincate(II), (N H4)2 (Zn (N H3)2 (Cr O4)2)
;
loop_
_citation_id
_citation_journal_full
_citation_year
_citation_journal_volume
_citation_page_first
_citation_page_last
_citation_journal_id_ASTM
primary 'Inorganic Chemistry' 1969 8 11 13 INOCAJ
loop_
_publ_author_name
'Harel, M.'
'Knobler, C.'
'McCullough, J.D.'
_cell_length_a 12.85(2)
_cell_length_b 5.912(8)
_cell_length_c 7.434(8)
_cell_angle_alpha 90.
_cell_angle_beta 111.2(2)
_cell_angle_gamma 90.
_cell_volume 526.53
_cell_formula_units_Z 2
_symmetry_space_group_name_H-M 'C 1 2/m 1'
_symmetry_Int_Tables_number 12
_refine_ls_R_factor_all 0.116
loop_
_symmetry_equiv_pos_site_id
_symmetry_equiv_pos_as_xyz
1 '-x, y, -z'
2 '-x, -y, -z'
3 'x, -y, z'
4 'x, y, z'
5 '-x+1/2, y+1/2, -z'
6 '-x+1/2, -y+1/2, -z'
7 'x+1/2, -y+1/2, z'
8 'x+1/2, y+1/2, z'
loop_
_atom_type_symbol
_atom_type_oxidation_number
Zn2+ 2
Cr6+ 6
O2- -2
N3- -3
H1+ 1
loop_
_atom_site_label
_atom_site_type_symbol
_atom_site_symmetry_multiplicity
_atom_site_Wyckoff_symbol
_atom_site_fract_x
_atom_site_fract_y
_atom_site_fract_z
_atom_site_B_iso_or_equiv
_atom_site_occupancy
_atom_site_attached_hydrogens
Zn1 Zn2+ 2 a 0 0 0 . 1. 0
Cr1 Cr6+ 4 i 0.1533(4) 0.5 0.2142(6) . 1. 0
O1 O2- 8 j 0.130(1) 0.269(2) 0.077(1) 2.9 1. 0
O2 O2- 4 i 0.069(2) 0.5 0.339(2) 2.7 1. 0
O3 O2- 4 i 0.284(2) 0.5 0.361(3) 3.2 1. 0
N1 N3- 4 i 0.001(2) 0 0.270(3) 3.3 1. 0
N2 N3- 4 i 0.328(1) 0 0.263(2) 2.8 1. 0
loop_
_atom_site_aniso_label
_atom_site_aniso_type_symbol
_atom_site_aniso_B_11
_atom_site_aniso_B_22
_atom_site_aniso_B_33
_atom_site_aniso_B_12
_atom_site_aniso_B_13
_atom_site_aniso_B_23
Zn1 Zn2+ 4.2(1) 3.4(1) 2.6(1) 0 1.3(1) 0
Cr1 Cr6+ 2.3(1) 2.2(1) 2.2(1) 0 0.9(1) 0
#End of TTdata_15224-ICSD