
#(C) 2017 by FIZ Karlsruhe - Leibniz Institute for Information Infrastructure.  All rights reserved.
data_152482-ICSD
_database_code_ICSD 152482
_audit_creation_date 2006-10-01
_chemical_name_systematic 'Tribarium calcium diruthenate(V) - HP'
_chemical_formula_structural 'Ba3 Ca (Ru2 O9)'
_chemical_formula_sum 'Ba3 Ca1 O9 Ru2'
_chemical_name_structure_type Ba3SrTa2O9
_exptl_crystal_density_diffrn 6.32
_publ_section_title

;
Effect of explicit cationic size and valence constraints on the phase
stability of 1:2 B-site-ordered perovskite ruthenates
;
loop_
_citation_id
_citation_journal_full
_citation_year
_citation_journal_volume
_citation_page_first
_citation_page_last
_citation_journal_id_ASTM
primary 'Journal of the American Chemical Society' 2005 127 675 681 JACSAT
loop_
_publ_author_name
'Rijssenbeek, J.T.'
'Saito, T.'
'Malo, S.'
'Azuma, M.'
'Takano, M.'
'Poeppelmeier, K.R.'
_cell_length_a 5.8168(2)
_cell_length_b 5.8168(2)
_cell_length_c 7.1619(3)
_cell_angle_alpha 90.
_cell_angle_beta 90.
_cell_angle_gamma 120.
_cell_volume 209.86
_cell_formula_units_Z 1
_symmetry_space_group_name_H-M 'P -3 m 1'
_symmetry_Int_Tables_number 164
_refine_ls_R_factor_all 0.0497
loop_
_symmetry_equiv_pos_site_id
_symmetry_equiv_pos_as_xyz
1 'x-y, -y, -z'
2 '-x, -x+y, -z'
3 'y, x, -z'
4 'x-y, x, -z'
5 'y, -x+y, -z'
6 '-x, -y, -z'
7 '-x+y, y, z'
8 'x, x-y, z'
9 '-y, -x, z'
10 '-x+y, -x, z'
11 '-y, x-y, z'
12 'x, y, z'
loop_
_atom_type_symbol
_atom_type_oxidation_number
Ba2+ 2
Ca2+ 2
Ru5+ 5
O2- -2
loop_
_atom_site_label
_atom_site_type_symbol
_atom_site_symmetry_multiplicity
_atom_site_Wyckoff_symbol
_atom_site_fract_x
_atom_site_fract_y
_atom_site_fract_z
_atom_site_B_iso_or_equiv
_atom_site_occupancy
_atom_site_attached_hydrogens
Ba1 Ba2+ 1 a 0 0 0 0.59(12) 1. 0
Ba2 Ba2+ 2 d 0.3333 0.6667 0.6713(8) 0.75(7) 1. 0
Ca1 Ca2+ 1 b 0 0 0.5 0.89(15) 1. 0
Ru1 Ru5+ 2 d 0.3333 0.6667 0.1616(5) 0.39(5) 1. 0
O1 O2- 3 e 0.5 0 0 1.15(7) 1. 0
O2 O2- 6 i 0.1781(2) -0.1781(2) 0.3146(3) 0.99(5) 1. 0
#End of TTdata_152482-ICSD