
#(C) 2017 by FIZ Karlsruhe - Leibniz Institute for Information Infrastructure.  All rights reserved.
data_152599-ICSD
_database_code_ICSD 152599
_audit_creation_date 2006-10-01
_chemical_name_systematic 'Lanthanum nickel lead (4/3/4)'
_chemical_formula_structural 'La4 Ni3 Pb4'
_chemical_formula_sum 'La4 Ni3 Pb4'
_exptl_crystal_density_diffrn 9.33
_publ_section_title

;
Investigation of the phase diagrams of the systems R - Ni - Pb (R = Y, La, Ce,
Dy) and crystal structures of the compounds R4 Ni3 Pb4 (R = La, Ce, Pr) and R5
Ni Pb3 (R = Y, La, Ce, Pr, Tb, Dy, Ho, Er, Tm, Lu)
;
loop_
_citation_id
_citation_journal_full
_citation_year
_citation_journal_volume
_citation_page_first
_citation_page_last
_citation_journal_id_ASTM
primary 'Journal of Alloys and Compounds' 2005 392 165 172 JALCEU
loop_
_publ_author_name
'Gulay, L.D.'
_cell_length_a 10.0367(7)
_cell_length_b 10.0367(7)
_cell_length_c 9.5558(8)
_cell_angle_alpha 90.
_cell_angle_beta 90.
_cell_angle_gamma 120.
_cell_volume 833.64
_cell_formula_units_Z 3
_symmetry_space_group_name_H-M 'R 3 H'
_symmetry_Int_Tables_number 146
_refine_ls_R_factor_all 0.0271
loop_
_symmetry_equiv_pos_site_id
_symmetry_equiv_pos_as_xyz
1 '-x+y, -x, z'
2 '-y, x-y, z'
3 'x, y, z'
4 '-x+y+2/3, -x+1/3, z+1/3'
5 '-y+2/3, x-y+1/3, z+1/3'
6 'x+2/3, y+1/3, z+1/3'
7 '-x+y+1/3, -x+2/3, z+2/3'
8 '-y+1/3, x-y+2/3, z+2/3'
9 'x+1/3, y+2/3, z+2/3'
loop_
_atom_type_symbol
_atom_type_oxidation_number
La0+ 0
Ni0+ 0
Pb0+ 0
loop_
_atom_site_label
_atom_site_type_symbol
_atom_site_symmetry_multiplicity
_atom_site_Wyckoff_symbol
_atom_site_fract_x
_atom_site_fract_y
_atom_site_fract_z
_atom_site_B_iso_or_equiv
_atom_site_occupancy
_atom_site_attached_hydrogens
La1 La0+ 9 b 0.332(2) 0.050(1) 0.763(2) 0.5 1. 0
La2 La0+ 3 a 0 0 0.880(1) 0.5 1. 0
Ni1 Ni0+ 9 b 0.696(2) 0.222(2) 0.937(4) 0.5 1. 0
Pb1 Pb0+ 9 b 0.5937(7) 0.9407(7) 0.762(2) 0.5 1. 0
Pb2 Pb0+ 3 a 0 0 0.333 0.5 1. 0
#End of TTdata_152599-ICSD