
#(C) 2017 by FIZ Karlsruhe - Leibniz Institute for Information Infrastructure.  All rights reserved.
data_15306-ICSD
_database_code_ICSD 15306
_audit_creation_date 1980-01-01
_chemical_name_systematic 'Ditantalum chromium(II) oxide'
_chemical_formula_structural 'Ta2 Cr O6'
_chemical_formula_sum 'Cr1 O6 Ta2'
_chemical_name_structure_type ZnSb2O6
_exptl_crystal_density_diffrn 8.08
_publ_section_title 'Structure cristalline et proprietes de l'oxyde Ta2 Cr O6'
loop_
_citation_id
_citation_journal_full
_citation_year
_citation_journal_volume
_citation_page_first
_citation_page_last
_citation_journal_id_ASTM
primary 'Annales de Chimie (Paris) (Vol=Year)' 1971 1971 41 52 ANCPAC
loop_
_publ_author_name
'Massard, P.'
'Bernier, J.C.'
'Michel, A.'
_cell_length_a 4.745
_cell_length_b 4.745
_cell_length_c 9.305
_cell_angle_alpha 90.
_cell_angle_beta 90.
_cell_angle_gamma 90.
_cell_volume 209.5
_cell_formula_units_Z 2
_symmetry_space_group_name_H-M 'P 42/m n m'
_symmetry_Int_Tables_number 136
_refine_ls_R_factor_all 0.05
loop_
_symmetry_equiv_pos_site_id
_symmetry_equiv_pos_as_xyz
1 '-y+1/2, x+1/2, -z+1/2'
2 'y+1/2, -x+1/2, -z+1/2'
3 'y, x, -z'
4 '-y, -x, -z'
5 'y+1/2, -x+1/2, z+1/2'
6 '-y+1/2, x+1/2, z+1/2'
7 '-y, -x, z'
8 'y, x, z'
9 'x+1/2, -y+1/2, -z+1/2'
10 '-x+1/2, y+1/2, -z+1/2'
11 'x, y, -z'
12 '-x, -y, -z'
13 '-x+1/2, y+1/2, z+1/2'
14 'x+1/2, -y+1/2, z+1/2'
15 '-x, -y, z'
16 'x, y, z'
loop_
_atom_type_symbol
_atom_type_oxidation_number
O2- -2
Ta5+ 5
Cr2+ 2
loop_
_atom_site_label
_atom_site_type_symbol
_atom_site_symmetry_multiplicity
_atom_site_Wyckoff_symbol
_atom_site_fract_x
_atom_site_fract_y
_atom_site_fract_z
_atom_site_B_iso_or_equiv
_atom_site_occupancy
_atom_site_attached_hydrogens
O1 O2- 8 j 0.292 0.292 0.323 1.72 1. 0
O2 O2- 4 f 0.28 0.28 0 1.72 1. 0
Ta1 Ta5+ 4 e 0 0 0.334 1.72 1. 0
Cr1 Cr2+ 2 a 0 0 0 1.72 1. 0
#End of TTdata_15306-ICSD