
#(C) 2017 by FIZ Karlsruhe - Leibniz Institute for Information Infrastructure.  All rights reserved.
data_153124-ICSD
_database_code_ICSD 153124
_audit_creation_date 2006-10-01
_chemical_name_systematic 'Barium zirconium bis(phosphate(V))'
_chemical_formula_structural 'Ba Zr (P O4)2'
_chemical_formula_sum 'Ba1 O8 P2 Zr1'
_chemical_name_structure_type NaV(SO4)2
_exptl_crystal_density_diffrn 3.88
_cell_measurement_temperature 298.
_publ_section_title

;
Crystal structure, phase transition and anisotropic thermal expansion of
barium zirconium diorthophosphate, Ba Zr (P O4)2
;
loop_
_citation_id
_citation_journal_full
_citation_year
_citation_journal_volume
_citation_page_first
_citation_page_last
_citation_journal_id_ASTM
primary 'Journal of Solid State Chemistry' 2005 178 2144 2151 JSSCBI
loop_
_publ_author_name
'Fukuda, K.'
'Moriyama, A.'
'Iwata, T.'
_cell_length_a 8.5629(3)
_cell_length_b 5.3082(2)
_cell_length_c 7.8956(2)
_cell_angle_alpha 90.
_cell_angle_beta 93.086(1)
_cell_angle_gamma 90.
_cell_volume 358.36
_cell_formula_units_Z 2
_symmetry_space_group_name_H-M 'C 1 2/m 1'
_symmetry_Int_Tables_number 12
_refine_ls_R_factor_all 0.0292
loop_
_symmetry_equiv_pos_site_id
_symmetry_equiv_pos_as_xyz
1 '-x, y, -z'
2 '-x, -y, -z'
3 'x, -y, z'
4 'x, y, z'
5 '-x+1/2, y+1/2, -z'
6 '-x+1/2, -y+1/2, -z'
7 'x+1/2, -y+1/2, z'
8 'x+1/2, y+1/2, z'
loop_
_atom_type_symbol
_atom_type_oxidation_number
Ba2+ 2
Zr4+ 4
P5+ 5
O2- -2
loop_
_atom_site_label
_atom_site_type_symbol
_atom_site_symmetry_multiplicity
_atom_site_Wyckoff_symbol
_atom_site_fract_x
_atom_site_fract_y
_atom_site_fract_z
_atom_site_B_iso_or_equiv
_atom_site_occupancy
_atom_site_attached_hydrogens
Ba1 Ba2+ 2 c 0 0 0.5 0.64(3) 1. 0
Zr1 Zr4+ 2 a 0 0 0 0.10(4) 1. 0
P1 P5+ 4 i 0.3624(2) 0 0.2223(2) 0.31(5) 1. 0
O1 O2- 4 i 0.2300(5) 0 0.0876(6) 0.9(1) 1. 0
O2 O2- 4 i 0.3147(5) 0 0.4052(6) 0.7(1) 1. 0
O3 O2- 8 j 0.4655(3) 0.2384(5) 0.1893(3) 0.2(1) 1. 0
#End of TTdata_153124-ICSD