
#(C) 2017 by FIZ Karlsruhe - Leibniz Institute for Information Infrastructure.  All rights reserved.
data_153457-ICSD
_database_code_ICSD 153457
_audit_creation_date 2006-10-01
_chemical_name_systematic 'Silicon arsenide (1/1)'
_chemical_formula_structural 'Si As'
_chemical_formula_sum 'As1 Si1'
_chemical_name_structure_type GaTe
_exptl_crystal_density_diffrn 3.82
_publ_section_title

;
Inorganic crystal structure data to be presented in a form more useful for
further studies
;
loop_
_citation_id
_citation_journal_full
_citation_year
_citation_journal_volume
_citation_page_first
_citation_page_last
_citation_journal_id_ASTM
primary 'Jiegon Huaxue' 2004 23 1150 1160 JHUADF
loop_
_publ_author_name
'Hu Sheng Zhi'
'Parthe, E.'
_cell_length_a 15.979
_cell_length_b 3.668
_cell_length_c 9.529
_cell_angle_alpha 90.
_cell_angle_beta 106.
_cell_angle_gamma 90.
_cell_volume 536.87
_cell_formula_units_Z 12
_symmetry_space_group_name_H-M 'C 1 2/m 1'
_symmetry_Int_Tables_number 12
loop_
_symmetry_equiv_pos_site_id
_symmetry_equiv_pos_as_xyz
1 '-x, y, -z'
2 '-x, -y, -z'
3 'x, -y, z'
4 'x, y, z'
5 '-x+1/2, y+1/2, -z'
6 '-x+1/2, -y+1/2, -z'
7 'x+1/2, -y+1/2, z'
8 'x+1/2, y+1/2, z'
loop_
_atom_type_symbol
_atom_type_oxidation_number
Si0+ 0
As0+ 0
loop_
_atom_site_label
_atom_site_type_symbol
_atom_site_symmetry_multiplicity
_atom_site_Wyckoff_symbol
_atom_site_fract_x
_atom_site_fract_y
_atom_site_fract_z
_atom_site_B_iso_or_equiv
_atom_site_occupancy
_atom_site_attached_hydrogens
Si1 Si0+ 4 i 0.1303 0 0.4162 . 1. 0
Si2 Si0+ 4 i 0.2387 0 0.2924 . 1. 0
Si3 Si0+ 4 i 0.5661 0 0.0884 . 1. 0
As1 As0+ 4 i 0.1521 0 0.0457 . 1. 0
As2 As0+ 4 i 0.1632 0 0.6738 . 1. 0
As3 As0+ 4 i 0.5369 0 0.3239 . 1. 0
#End of TTdata_153457-ICSD