
#(C) 2017 by FIZ Karlsruhe - Leibniz Institute for Information Infrastructure.  All rights reserved.
data_153456-ICSD
_database_code_ICSD 153456
_audit_creation_date 2006-10-01
_audit_update_record 2012-02-01
_chemical_name_systematic 'Gallium telluride (1/1)'
_chemical_formula_structural 'Ga Te'
_chemical_formula_sum 'Ga1 Te1'
_chemical_name_structure_type GaTe
_exptl_crystal_density_diffrn 5.47
_publ_section_title

;
Inorganic crystal structure data to be presented in a form more useful for
further studies
;
loop_
_citation_id
_citation_journal_full
_citation_year
_citation_journal_volume
_citation_page_first
_citation_page_last
_citation_journal_id_ASTM
primary 'Jiegon Huaxue' 2004 23 1150 1160 JHUADF
loop_
_publ_author_name
'Hu Sheng Zhi'
'Parthe, E.'
_cell_length_a 17.404
_cell_length_b 4.077
_cell_length_c 10.456
_cell_angle_alpha 90.
_cell_angle_beta 104.5
_cell_angle_gamma 90.
_cell_volume 718.29
_cell_formula_units_Z 12
_symmetry_space_group_name_H-M 'C 1 2/m 1'
_symmetry_Int_Tables_number 12
loop_
_symmetry_equiv_pos_site_id
_symmetry_equiv_pos_as_xyz
1 '-x, y, -z'
2 '-x, -y, -z'
3 'x, -y, z'
4 'x, y, z'
5 '-x+1/2, y+1/2, -z'
6 '-x+1/2, -y+1/2, -z'
7 'x+1/2, -y+1/2, z'
8 'x+1/2, y+1/2, z'
loop_
_atom_type_symbol
_atom_type_oxidation_number
Ga0+ 0
Te0+ 0
loop_
_atom_site_label
_atom_site_type_symbol
_atom_site_symmetry_multiplicity
_atom_site_Wyckoff_symbol
_atom_site_fract_x
_atom_site_fract_y
_atom_site_fract_z
_atom_site_B_iso_or_equiv
_atom_site_occupancy
_atom_site_attached_hydrogens
Ga1 Ga0+ 4 i 0.1372 0 0.4191 . 1. 0
Ga2 Ga0+ 4 i 0.2412 0 0.3006 . 1. 0
Ga3 Ga0+ 4 i 0.5633 0 0.0828 . 1. 0
Te1 Te0+ 4 i 0.1566 0 0.0513 . 1. 0
Te2 Te0+ 4 i 0.1583 0 0.6777 . 1. 0
Te3 Te0+ 4 i 0.5403 0 0.3274 . 1. 0
#End of TTdata_153456-ICSD