
#(C) 2017 by FIZ Karlsruhe - Leibniz Institute for Information Infrastructure.  All rights reserved.
data_153864-ICSD
_database_code_ICSD 153864
_audit_creation_date 2007-04-01
_chemical_name_systematic 'Potassium iron(III) bis(molybdate) - paraelastic'
_chemical_formula_structural 'K Fe (Mo O4)2'
_chemical_formula_sum 'Fe1 K1 Mo2 O8'
_chemical_name_structure_type KAl(MoO4)2
_exptl_crystal_density_diffrn 3.47
_cell_measurement_temperature 360.
_publ_section_title

;
High pressure effects on the structural and vibrational properties of
antiferrromagnetic K Fe (Mo O4)2
;
loop_
_citation_id
_citation_journal_full
_citation_year
_citation_journal_volume
_citation_page_first
_citation_page_last
_citation_journal_id_ASTM
primary 'Journal of Physics: Condensed Matter' 2005 17 6285 6300 JCOMEL
loop_
_publ_author_name
'Maczka, M.'
'Pietraszko, A.'
'Saraiva, G.D.'
'Souza Filho, A.G.'
'Paraguassu, W.'
'Lemos, V.'
'Perottoni, C.A.'
'Gallas, M.R.'
'Freire, P.T.C.'
'Tomaszewski, P.E.'
'Melo, F.E.A.'
'Mendes Filho, J.'
'Hanuza, J.'
_cell_length_a 5.6650(8)
_cell_length_b 5.6650(8)
_cell_length_c 7.1380(14)
_cell_angle_alpha 90.
_cell_angle_beta 90.
_cell_angle_gamma 120.
_cell_volume 198.38
_cell_formula_units_Z 1
_symmetry_space_group_name_H-M 'P -3 m 1'
_symmetry_Int_Tables_number 164
_refine_ls_R_factor_all 0.0229
loop_
_symmetry_equiv_pos_site_id
_symmetry_equiv_pos_as_xyz
1 'x-y, -y, -z'
2 '-x, -x+y, -z'
3 'y, x, -z'
4 'x-y, x, -z'
5 'y, -x+y, -z'
6 '-x, -y, -z'
7 '-x+y, y, z'
8 'x, x-y, z'
9 '-y, -x, z'
10 '-x+y, -x, z'
11 '-y, x-y, z'
12 'x, y, z'
loop_
_atom_type_symbol
_atom_type_oxidation_number
Fe3+ 3
Mo6+ 6
K1+ 1
O2- -2
loop_
_atom_site_label
_atom_site_type_symbol
_atom_site_symmetry_multiplicity
_atom_site_Wyckoff_symbol
_atom_site_fract_x
_atom_site_fract_y
_atom_site_fract_z
_atom_site_B_iso_or_equiv
_atom_site_occupancy
_atom_site_attached_hydrogens
Fe1 Fe3+ 1 b 0 0 0.5 0.012(1) 1. 0
Mo1 Mo6+ 2 d 0.6667 0.3333 0.2582(1) 0.012(1) 1. 0
K1 K1+ 1 a 0 0 0 0.038(1) 1. 0
O1 O2- 6 i 0.8381(1) 0.6762(2) 0.3352(2) 0.034(1) 1. 0
O2 O2- 2 d 0.6667 0.3333 0.0179(3) 0.031(1) 1. 0
loop_
_atom_site_aniso_label
_atom_site_aniso_type_symbol
_atom_site_aniso_U_11
_atom_site_aniso_U_22
_atom_site_aniso_U_33
_atom_site_aniso_U_12
_atom_site_aniso_U_13
_atom_site_aniso_U_23
Fe1 Fe3+ 0.010(1) 0.010(1) 0.017(1) 0.005(1) 0. 0.
Mo1 Mo6+ 0.012(1) 0.012(1) 0.013(1) 0.006(1) 0. 0.
K1 K1+ 0.049(1) 0.049(1) 0.017(1) 0.024(1) 0. 0.
O1 O2- 0.037(1) 0.020(1) 0.039(1) 0.010(1) -0.007(1) -0.014(1)
O2 O2- 0.037(1) 0.037(1) 0.018(1) 0.019(1) 0. 0.
#End of TTdata_153864-ICSD