
#(C) 2017 by FIZ Karlsruhe - Leibniz Institute for Information Infrastructure.  All rights reserved.
data_154803-ICSD
_database_code_ICSD 154803
_audit_creation_date 2007-04-01
_chemical_name_systematic 'Tristrontium trinitridochromate(III)'
_chemical_formula_structural 'Sr3 (Cr N3)'
_chemical_formula_sum 'Cr1 N3 Sr3'
_chemical_name_structure_type Ba3FeN3
_exptl_crystal_density_diffrn 4.37
_cell_measurement_temperature 298.
_publ_section_title

;
Synthesis and crystal structures of the new ternary nitrides Sr3 Cr N3 and Ba3
Cr N3
;
loop_
_citation_id
_citation_journal_full
_citation_year
_citation_journal_volume
_citation_page_first
_citation_page_last
_citation_journal_id_ASTM
primary

;
Journal of the Chemical Society. Dalton Transactions, Inorganic Chemistry
(1972-)
; 1996 1996 1 5 JCDTBI
loop_
_publ_author_name
'Barker, M.G.'
'Begley, M.J.'
'Edwards, P.P.'
'Gregory, D.H.'
'Smith, S.E.'
_cell_length_a 7.724(2)
_cell_length_b 7.724(2)
_cell_length_c 5.249(1)
_cell_angle_alpha 90.
_cell_angle_beta 90.
_cell_angle_gamma 120.
_cell_volume 271.2
_cell_formula_units_Z 2
_symmetry_space_group_name_H-M 'P 63/m'
_symmetry_Int_Tables_number 176
_refine_ls_R_factor_all 0.0192
loop_
_symmetry_equiv_pos_site_id
_symmetry_equiv_pos_as_xyz
1 '-x+y, -x, -z+1/2'
2 '-y, x-y, -z+1/2'
3 'x, y, -z+1/2'
4 'x-y, x, -z'
5 'y, -x+y, -z'
6 '-x, -y, -z'
7 'x-y, x, z+1/2'
8 'y, -x+y, z+1/2'
9 '-x, -y, z+1/2'
10 '-x+y, -x, z'
11 '-y, x-y, z'
12 'x, y, z'
loop_
_atom_type_symbol
_atom_type_oxidation_number
Sr2+ 2
Cr3+ 3
N3- -3
loop_
_atom_site_label
_atom_site_type_symbol
_atom_site_symmetry_multiplicity
_atom_site_Wyckoff_symbol
_atom_site_fract_x
_atom_site_fract_y
_atom_site_fract_z
_atom_site_B_iso_or_equiv
_atom_site_occupancy
_atom_site_attached_hydrogens
Sr1 Sr2+ 6 h 0.35455(6) 0.26893(7) 0.25 0.0044 1. 0
Cr1 Cr3+ 2 c 0.6667 0.3333 0.75 0.0017 1. 0
N1 N3- 6 h 0.4347(5) 0.3158(5) 0.75 0.0066 1. 0
loop_
_atom_site_aniso_label
_atom_site_aniso_type_symbol
_atom_site_aniso_U_11
_atom_site_aniso_U_22
_atom_site_aniso_U_33
_atom_site_aniso_U_12
_atom_site_aniso_U_13
_atom_site_aniso_U_23
Sr1 Sr2+ 0.0061(2) 0.0054(2) 0.0045(3) 0.0044(2) 0. 0.
Cr1 Cr3+ 0.0014(3) 0.0014(3) 0.0028(5) 0.0007(2) 0. 0.
N1 N3- 0.008(2) 0.007(2) 0.007(2) 0.005(2) 0. 0.
#End of TTdata_154803-ICSD