
#(C) 2017 by FIZ Karlsruhe - Leibniz Institute for Information Infrastructure.  All rights reserved.
data_155423-ICSD
_database_code_ICSD 155423
_audit_creation_date 2007-08-01
_chemical_name_systematic 'Calcium tungstate - LP, scheelite phase'
_chemical_formula_structural 'Ca (W O4)'
_chemical_formula_sum 'Ca1 O4 W1'
_chemical_name_structure_type Scheelite-CaWO4
_exptl_crystal_density_diffrn 6.26
_cell_measurement_pressure 1400000.
_publ_section_title

;
High-pressure structural study of the scheelite tungstates Ca W O4 and Sr W O4
;
loop_
_citation_id
_citation_journal_full
_citation_year
_citation_journal_volume
_citation_page_first
_citation_page_last
_citation_journal_id_ASTM
primary 'Physical Review, Serie 3. B - Condensed Matter (18,1978-)' 2005 72
174106-1 174106-14 PRBMDO
loop_
_publ_author_name
'Errandonea, D.'
'Pellicer-Porres, J.'
'Manjon, F.J.'
'Segura, A.'
'Ferrer-Roca, C.'
'Kumar, R.S.'
'Tschauner, O.'
'Rodriguez Hernandez, P.'
'Lopez Solano, J.'
'Radescu, S.'
'Mujica, A.'
'Munoz, A.'
'Aquilanti, G.'
_cell_length_a 5.205(5)
_cell_length_b 5.205(5)
_cell_length_c 11.275(7)
_cell_angle_alpha 90.
_cell_angle_beta 90.
_cell_angle_gamma 90.
_cell_volume 305.46
_cell_formula_units_Z 4
_symmetry_space_group_name_H-M 'I 41/a Z'
_symmetry_Int_Tables_number 88
_refine_ls_R_factor_all 0.015
loop_
_symmetry_equiv_pos_site_id
_symmetry_equiv_pos_as_xyz
1 '-y+3/4, x+3/4, -z+3/4'
2 'y+1/4, -x+3/4, -z+3/4'
3 'x, y+1/2, -z'
4 '-x, -y, -z'
5 'y+1/4, -x+1/4, z+1/4'
6 '-y+3/4, x+1/4, z+1/4'
7 '-x, -y+1/2, z'
8 'x, y, z'
9 '-y+1/4, x+1/4, -z+1/4'
10 'y+3/4, -x+1/4, -z+1/4'
11 'x+1/2, y, -z+1/2'
12 '-x+1/2, -y+1/2, -z+1/2'
13 'y+3/4, -x+3/4, z+3/4'
14 '-y+1/4, x+3/4, z+3/4'
15 '-x+1/2, -y, z+1/2'
16 'x+1/2, y+1/2, z+1/2'
loop_
_atom_type_symbol
_atom_type_oxidation_number
Ca2+ 2
W6+ 6
O2- -2
loop_
_atom_site_label
_atom_site_type_symbol
_atom_site_symmetry_multiplicity
_atom_site_Wyckoff_symbol
_atom_site_fract_x
_atom_site_fract_y
_atom_site_fract_z
_atom_site_B_iso_or_equiv
_atom_site_occupancy
_atom_site_attached_hydrogens
Ca1 Ca2+ 4 b 0 0.25 0.625 . 1. 0
W1 W6+ 4 a 0 0.25 0.125 . 1. 0
O1 O2- 16 f 0.2289(3) 0.0910(4) 0.0421(5) . 1. 0
#End of TTdata_155423-ICSD