
#(C) 2017 by FIZ Karlsruhe - Leibniz Institute for Information Infrastructure.  All rights reserved.
data_155426-ICSD
_database_code_ICSD 155426
_audit_creation_date 2007-08-01
_chemical_name_systematic 'Strontium tungstate - HP, fergusonite phase'
_chemical_formula_structural 'Sr (W O4)'
_chemical_formula_sum 'O4 Sr1 W1'
_chemical_name_structure_type YNbO4(mS24)
_exptl_crystal_density_diffrn 7.24
_cell_measurement_pressure 10100000.
_publ_section_title

;
High-pressure structural study of the scheelite tungstates Ca W O4 and Sr W O4
;
loop_
_citation_id
_citation_journal_full
_citation_year
_citation_journal_volume
_citation_page_first
_citation_page_last
_citation_journal_id_ASTM
primary 'Physical Review, Serie 3. B - Condensed Matter (18,1978-)' 2005 72
174106-1 174106-14 PRBMDO
loop_
_publ_author_name
'Errandonea, D.'
'Pellicer-Porres, J.'
'Manjon, F.J.'
'Segura, A.'
'Ferrer-Roca, C.'
'Kumar, R.S.'
'Tschauner, O.'
'Rodriguez Hernandez, P.'
'Lopez Solano, J.'
'Radescu, S.'
'Mujica, A.'
'Munoz, A.'
'Aquilanti, G.'
_cell_length_a 5.263(9)
_cell_length_b 11.182(6)
_cell_length_c 5.231(6)
_cell_angle_alpha 90.
_cell_angle_beta 90.35(1)
_cell_angle_gamma 90.
_cell_volume 307.84
_cell_formula_units_Z 4
_symmetry_space_group_name_H-M 'I 1 2/a 1'
_symmetry_Int_Tables_number 15
_refine_ls_R_factor_all 0.014
loop_
_symmetry_equiv_pos_site_id
_symmetry_equiv_pos_as_xyz
1 'x+1/2, -y, z'
2 '-x, -y, -z'
3 '-x+1/2, y, -z'
4 'x, y, z'
5 'x, -y+1/2, z+1/2'
6 '-x+1/2, -y+1/2, -z+1/2'
7 '-x, y+1/2, -z+1/2'
8 'x+1/2, y+1/2, z+1/2'
loop_
_atom_type_symbol
_atom_type_oxidation_number
Sr2+ 2
W6+ 6
O2- -2
loop_
_atom_site_label
_atom_site_type_symbol
_atom_site_symmetry_multiplicity
_atom_site_Wyckoff_symbol
_atom_site_fract_x
_atom_site_fract_y
_atom_site_fract_z
_atom_site_B_iso_or_equiv
_atom_site_occupancy
_atom_site_attached_hydrogens
Sr1 Sr2+ 4 e 0.25 0.6027(9) 0 . 1. 0
W1 W6+ 4 e 0.25 0.1243(8) 0 . 1. 0
O1 O2- 8 f 0.9309(49) 0.9598(53) 0.2619(42) . 1. 0
O2 O2- 8 f 0.4903(39) 0.2278(35) 0.8779(32) . 1. 0
#End of TTdata_155426-ICSD