
#(C) 2017 by FIZ Karlsruhe - Leibniz Institute for Information Infrastructure.  All rights reserved.
data_1558-ICSD
_database_code_ICSD 1558
_audit_creation_date 1980-01-01
_audit_update_record 2011-02-01
_chemical_name_systematic 'Bismuth(I) iodide - alpha'
_chemical_formula_structural 'Bi I'
_chemical_formula_sum 'Bi1 I1'
_chemical_name_structure_type BiI(mS32)
_exptl_crystal_density_diffrn 7.09
_publ_section_title 'Wismutmonojodid Bi J, eine Verbindung mit Bi(0) und Bi(II)'
loop_
_citation_id
_citation_journal_full
_citation_year
_citation_journal_volume
_citation_page_first
_citation_page_last
_citation_journal_id_ASTM
primary 'Zeitschrift fuer Anorganische und Allgemeine Chemie (1950) (DE)' 1978
438 37 52 ZAACAB
loop_
_publ_author_name
'von Schnering, H.G.'
'von Benda, H.'
'Kalveram, C.'
_cell_length_a 14.245(3)
_cell_length_b 4.428(1)
_cell_length_c 19.968(4)
_cell_angle_alpha 90.
_cell_angle_beta 92.96(2)
_cell_angle_gamma 90.
_cell_volume 1257.84
_cell_formula_units_Z 16
_symmetry_space_group_name_H-M 'C 1 2/m 1'
_symmetry_Int_Tables_number 12
_refine_ls_R_factor_all 0.081
loop_
_symmetry_equiv_pos_site_id
_symmetry_equiv_pos_as_xyz
1 '-x, y, -z'
2 '-x, -y, -z'
3 'x, -y, z'
4 'x, y, z'
5 '-x+1/2, y+1/2, -z'
6 '-x+1/2, -y+1/2, -z'
7 'x+1/2, -y+1/2, z'
8 'x+1/2, y+1/2, z'
loop_
_atom_type_symbol
_atom_type_oxidation_number
Bi1+ 1
I1- -1
loop_
_atom_site_label
_atom_site_type_symbol
_atom_site_symmetry_multiplicity
_atom_site_Wyckoff_symbol
_atom_site_fract_x
_atom_site_fract_y
_atom_site_fract_z
_atom_site_B_iso_or_equiv
_atom_site_occupancy
_atom_site_attached_hydrogens
Bi1 Bi1+ 4 i 0.0535(3) 0 0.2541(3) . 1. 0
Bi2 Bi1+ 4 i 0.6977(4) 0 0.2413(3) . 1. 0
Bi3 Bi1+ 4 i 0.0012(4) 0 0.1037(3) . 1. 0
Bi4 Bi1+ 4 i 0.2524(4) 0 0.6086(3) . 1. 0
I1 I1- 4 i 0.6391(7) 0 0.0558(4) . 1. 0
I2 I1- 4 i 0.3606(7) 0 0.1501(5) . 1. 0
I3 I1- 4 i 0.1101(7) 0 0.4408(5) . 1. 0
I4 I1- 4 i 0.3932(7) 0 0.3626(5) . 1. 0
loop_
_atom_site_aniso_label
_atom_site_aniso_type_symbol
_atom_site_aniso_B_11
_atom_site_aniso_B_22
_atom_site_aniso_B_33
_atom_site_aniso_B_12
_atom_site_aniso_B_13
_atom_site_aniso_B_23
Bi1 Bi1+ 1.22(19) 1.98(28) 1.44(22) 0 0.04(14) 0
Bi2 Bi1+ 2.64(26) 1.82(31) 1.43(24) 0 -.57(17) 0
Bi3 Bi1+ 2.00(23) 2.06(29) 1.15(21) 0 -.43(16) 0
Bi4 Bi1+ 2.51(27) 2.11(30) 1.39(23) 0 -.78(18) 0
I1 I1- 2.14(39) 2.26(46) 0.83(36) 0 0.36(28) 0
I2 I1- 2.02(36) 2.07(45) 1.67(38) 0 -.06(26) 0
I3 I1- 1.87(39) 2.64(50) 1.69(41) 0 -.54(29) 0
I4 I1- 1.41(33) 2.10(49) 2.92(46) 0 0.06(29) 0
#End of TTdata_1558-ICSD