
#(C) 2017 by FIZ Karlsruhe - Leibniz Institute for Information Infrastructure.  All rights reserved.
data_15585-ICSD
_database_code_ICSD 15585
_audit_creation_date 1986-10-14
_audit_update_record 2010-02-01
_chemical_name_systematic 'Diammonium tetrachlorocuprate'
_chemical_formula_structural '(N H4)2 (Cu Cl4)'
_chemical_formula_sum 'H8 Cl4 Cu1 N2'
_chemical_name_structure_type Rb2CuCl4
_exptl_crystal_density_diffrn 2.
_publ_section_title 'Crystal structure of (N H4)2 Cu Cl4'
loop_
_citation_id
_citation_journal_full
_citation_year
_citation_journal_volume
_citation_page_first
_citation_page_last
_citation_journal_id_ASTM
primary 'Journal of Chemical Physics' 1964 41 2243 2244 JCPSA6
loop_
_publ_author_name
'Willett, R.D.'
_cell_length_a 15.46(2)
_cell_length_b 7.20(1)
_cell_length_c 7.20(1)
_cell_angle_alpha 90.
_cell_angle_beta 90.
_cell_angle_gamma 90.
_cell_volume 801.45
_cell_formula_units_Z 4
_symmetry_space_group_name_H-M 'C m c a'
_symmetry_Int_Tables_number 64
_refine_ls_R_factor_all 0.073
loop_
_symmetry_equiv_pos_site_id
_symmetry_equiv_pos_as_xyz
1 '-x, -y+1/2, z+1/2'
2 '-x, y+1/2, -z+1/2'
3 '-x, y, z'
4 '-x, -y, -z'
5 'x, y+1/2, -z+1/2'
6 'x, -y+1/2, z+1/2'
7 'x, -y, -z'
8 'x, y, z'
9 '-x+1/2, -y, z+1/2'
10 '-x+1/2, y, -z+1/2'
11 '-x+1/2, y+1/2, z'
12 '-x+1/2, -y+1/2, -z'
13 'x+1/2, y, -z+1/2'
14 'x+1/2, -y, z+1/2'
15 'x+1/2, -y+1/2, -z'
16 'x+1/2, y+1/2, z'
loop_
_atom_type_symbol
_atom_type_oxidation_number
Cu2+ 2
Cl1- -1
N3- -3
H1+ 1
loop_
_atom_site_label
_atom_site_type_symbol
_atom_site_symmetry_multiplicity
_atom_site_Wyckoff_symbol
_atom_site_fract_x
_atom_site_fract_y
_atom_site_fract_z
_atom_site_B_iso_or_equiv
_atom_site_occupancy
_atom_site_attached_hydrogens
Cu1 Cu2+ 4 a 0 0 0 . 1. 0
Cl1 Cl1- 8 d 0.15062(30) 0 0 . 1. 0
Cl2 Cl1- 8 f 0 0.22589(48) 0.22605(51) . 1. 0
N1 N3- 8 d 0.3608(10) 0 0 . 1. 0
loop_
_atom_site_aniso_label
_atom_site_aniso_type_symbol
_atom_site_aniso_beta_11
_atom_site_aniso_beta_22
_atom_site_aniso_beta_33
_atom_site_aniso_beta_12
_atom_site_aniso_beta_13
_atom_site_aniso_beta_23
Cu1 Cu2+ 0.00194(13) 0.0083(15) 0.0108(16) 0 0 -.00127(25)
Cl1 Cl1- 0.00175(19) 0.0220(27) 0.0216(28) 0 0 -.00032(45)
Cl2 Cl1- 0.00487(25) 0.0168(12) 0.0145(12) 0 0 -.00320(81)
N1 N3- 0.00255(67) 0.0126(67) 0.0159(69) 0 0 -0.0001(12)
#End of TTdata_15585-ICSD