
#(C) 2017 by FIZ Karlsruhe - Leibniz Institute for Information Infrastructure.  All rights reserved.
data_1560-ICSD
_database_code_ICSD 1560
_audit_creation_date 1980-01-01
_audit_update_record 2010-02-01
_chemical_name_systematic 'Bismuth(I) bromide'
_chemical_formula_structural 'Bi Br'
_chemical_formula_sum 'Bi1 Br1'
_chemical_name_structure_type BiI(mS32)
_exptl_crystal_density_diffrn 7.08
_publ_section_title 'Zur Kenntnis von Bi Br und  Bi Br1.167'
loop_
_citation_id
_citation_journal_full
_citation_year
_citation_journal_volume
_citation_page_first
_citation_page_last
_citation_journal_id_ASTM
primary 'Zeitschrift fuer Anorganische und Allgemeine Chemie (1950) (DE)' 1978
438 53 67 ZAACAB
loop_
_publ_author_name
'von Benda, H.'
'Simon, A.'
'Bauhofer, W.'
_cell_length_a 13.064(5)
_cell_length_b 4.338(2)
_cell_length_c 20.061(8)
_cell_angle_alpha 90.
_cell_angle_beta 107.42(3)
_cell_angle_gamma 90.
_cell_volume 1084.75
_cell_formula_units_Z 16
_symmetry_space_group_name_H-M 'C 1 2/m 1'
_symmetry_Int_Tables_number 12
_refine_ls_R_factor_all 0.043
loop_
_symmetry_equiv_pos_site_id
_symmetry_equiv_pos_as_xyz
1 '-x, y, -z'
2 '-x, -y, -z'
3 'x, -y, z'
4 'x, y, z'
5 '-x+1/2, y+1/2, -z'
6 '-x+1/2, -y+1/2, -z'
7 'x+1/2, -y+1/2, z'
8 'x+1/2, y+1/2, z'
loop_
_atom_type_symbol
_atom_type_oxidation_number
Bi1+ 1
Br1- -1
loop_
_atom_site_label
_atom_site_type_symbol
_atom_site_symmetry_multiplicity
_atom_site_Wyckoff_symbol
_atom_site_fract_x
_atom_site_fract_y
_atom_site_fract_z
_atom_site_B_iso_or_equiv
_atom_site_occupancy
_atom_site_attached_hydrogens
Bi1 Bi1+ 4 i 0.16753(12) 0 0.99508(8) . 1. 0
Bi2 Bi1+ 4 i 0.17343(12) 0 0.50701(8) . 1. 0
Bi3 Bi1+ 4 i 0.06638(12) 0 0.34993(8) . 1. 0
Bi4 Bi1+ 4 i 0.20488(12) 0 0.15221(8) . 1. 0
Br1 Br1- 4 i 0.31168(35) 0 0.68977(22) . 1. 0
Br2 Br1- 4 i 0.13559(31) 0 0.81360(21) . 1. 0
Br3 Br1- 4 i 0.45494(31) 0 0.88955(22) . 1. 0
Br4 Br1- 4 i 0.43691(34) 0 0.38356(26) . 1. 0
loop_
_atom_site_aniso_label
_atom_site_aniso_type_symbol
_atom_site_aniso_B_11
_atom_site_aniso_B_22
_atom_site_aniso_B_33
_atom_site_aniso_B_12
_atom_site_aniso_B_13
_atom_site_aniso_B_23
Bi1 Bi1+ 2.26(6) 1.44(7) 1.91(7) 0 0.47(5) 0
Bi2 Bi1+ 2.43(7) 1.57(7) 1.97(7) 0 0.61(5) 0
Bi3 Bi1+ 2.52(7) 1.49(7) 2.08(7) 0 0.20(5) 0
Bi4 Bi1+ 2.86(7) 1.49(7) 1.90(7) 0 0.70(5) 0
Br1 Br1- 2.97(19) 2.33(20) 2.16(18) 0 1.23(15) 0
Br2 Br1- 2.01(17) 2.41(20) 1.86(17) 0 0.18(13) 0
Br3 Br1- 1.82(16) 1.82(16) 2.95(20) 0 0.55(15) 0
Br4 Br1- 2.57(19) 1.98(21) 4.51(24) 0 1.64(17) 0
#End of TTdata_1560-ICSD