
data_156946-ICSD
_database_code_ICSD 156946
_audit_creation_date 2008-02-01
_audit_update_record 2008-08-01
_chemical_name_systematic 'Yttrium platinum boride (1/2/1)'
_chemical_formula_structural 'Y Pt2 B'
_chemical_formula_sum 'B1 Pt2 Y1'
_chemical_name_structure_type CePt2B
_exptl_crystal_density_diffrn 12.73
_cell_measurement_temperature 293.
_cell_length_a 5.2977(1)
_cell_length_b 5.2977(1)
_cell_length_c 7.8875(2)
_cell_angle_alpha 90.
_cell_angle_beta 90.
_cell_angle_gamma 120.
_cell_volume 191.71
_cell_formula_units_Z 3
_symmetry_space_group_name_H-M 'P 62 2 2'
_symmetry_Int_Tables_number 180
_refine_ls_R_factor_all 0.0539
loop_
_symmetry_equiv_pos_site_id
_symmetry_equiv_pos_as_xyz
1 'x, x-y, -z+1/3'
2 '-x+y, y, -z'
3 '-y, -x, -z+2/3'
4 '-x, -x+y, -z+1/3'
5 'x-y, -y, -z'
6 'y, x, -z+2/3'
7 'x-y, x, z+1/3'
8 'y, -x+y, z+2/3'
9 '-x, -y, z'
10 '-x+y, -x, z+1/3'
11 '-y, x-y, z+2/3'
12 'x, y, z'
loop_
_atom_type_symbol
_atom_type_oxidation_number
Y0+ 0
Pt0+ 0
B0+ 0
loop_
_atom_site_label
_atom_site_type_symbol
_atom_site_symmetry_multiplicity
_atom_site_Wyckoff_symbol
_atom_site_fract_x
_atom_site_fract_y
_atom_site_fract_z
_atom_site_B_iso_or_equiv
_atom_site_occupancy
_atom_site_attached_hydrogens
Y1 Y0+ 3 c 0.5 0 0 4.085(3) 1. 0
Pt1 Pt0+ 6 i 0.1527(1) 0.3054(2) 0 3.452(7) 1. 0
B1 B0+ 3 d 0.5 0 0.5 3.108(7) 1. 0
