
#(C) 2017 by FIZ Karlsruhe - Leibniz Institute for Information Infrastructure.  All rights reserved.
data_157934-ICSD
_database_code_ICSD 157934
_audit_creation_date 2008-02-01
_chemical_name_systematic 'Yttrium chromate(V) - scheelite-type'
_chemical_formula_structural 'Y (Cr O4)'
_chemical_formula_sum 'Cr1 O4 Y1'
_chemical_name_structure_type Scheelite-CaWO4
_exptl_crystal_density_diffrn 4.83
_publ_section_title

;
Synthesis, structure, magnetism and specific heat of Y Cr O4 and its zircon -
to  - scheelite phase transition
;
loop_
_citation_id
_citation_journal_full
_citation_year
_citation_journal_volume
_citation_page_first
_citation_page_last
_citation_journal_id_ASTM
primary 'Physical Review, Serie 3. B - Condensed Matter (18,1978-)' 2007 75
104402-1 104402-7 PRBMDO
loop_
_publ_author_name
'Long, Y.-W.'
'Yang, L.-X.'
'Yu, Y.'
'Li, F.-Y.'
'Yu, R.-C.'
'Jin, C.-Q.'
_cell_length_a 5.0030(2)
_cell_length_b 5.0030(2)
_cell_length_c 11.2636(4)
_cell_angle_alpha 90.
_cell_angle_beta 90.
_cell_angle_gamma 90.
_cell_volume 281.93
_cell_formula_units_Z 4
_symmetry_space_group_name_H-M 'I 41/a Z'
_symmetry_Int_Tables_number 88
_refine_ls_R_factor_all 0.051
loop_
_symmetry_equiv_pos_site_id
_symmetry_equiv_pos_as_xyz
1 '-y+3/4, x+3/4, -z+3/4'
2 'y+1/4, -x+3/4, -z+3/4'
3 'x, y+1/2, -z'
4 '-x, -y, -z'
5 'y+1/4, -x+1/4, z+1/4'
6 '-y+3/4, x+1/4, z+1/4'
7 '-x, -y+1/2, z'
8 'x, y, z'
9 '-y+1/4, x+1/4, -z+1/4'
10 'y+3/4, -x+1/4, -z+1/4'
11 'x+1/2, y, -z+1/2'
12 '-x+1/2, -y+1/2, -z+1/2'
13 'y+3/4, -x+3/4, z+3/4'
14 '-y+1/4, x+3/4, z+3/4'
15 '-x+1/2, -y, z+1/2'
16 'x+1/2, y+1/2, z+1/2'
loop_
_atom_type_symbol
_atom_type_oxidation_number
Y3+ 3
Cr5+ 5
O2- -2
loop_
_atom_site_label
_atom_site_type_symbol
_atom_site_symmetry_multiplicity
_atom_site_Wyckoff_symbol
_atom_site_fract_x
_atom_site_fract_y
_atom_site_fract_z
_atom_site_B_iso_or_equiv
_atom_site_occupancy
_atom_site_attached_hydrogens
Y1 Y3+ 4 b 0 0.25 0.625 0.001 1. 0
Cr1 Cr5+ 4 a 0 0.25 0.125 0.004 1. 0
O1 O2- 16 f 0.2559(9) 0.1035(7) 0.0480(3) 0.017 1. 0
#End of TTdata_157934-ICSD