
#(C) 2017 by FIZ Karlsruhe - Leibniz Institute for Information Infrastructure.  All rights reserved.
data_157947-ICSD
_database_code_ICSD 157947
_audit_creation_date 2008-02-01
_chemical_name_systematic 'Indium antimonide (1/1) - IV'
_chemical_formula_structural 'In Sb'
_chemical_formula_sum 'In1 Sb1'
_chemical_name_structure_type InAs
_exptl_crystal_density_diffrn 7.82
_cell_measurement_pressure 5100000.
_publ_section_title 'Ordered superstructure of In Sb - IV'
loop_
_citation_id
_citation_journal_full
_citation_year
_citation_journal_volume
_citation_page_first
_citation_page_last
_citation_journal_id_ASTM
primary 'Physical Review Letters' 1995 74 106 109 PRLTAO
loop_
_publ_author_name
'Nelmes, R.J.'
'McMahon, M.I.'
_cell_length_a 5.847(1)
_cell_length_b 6.140(1)
_cell_length_c 16.791(1)
_cell_angle_alpha 90.
_cell_angle_beta 90.
_cell_angle_gamma 90.
_cell_volume 602.81
_cell_formula_units_Z 12
_symmetry_space_group_name_H-M 'C m c m'
_symmetry_Int_Tables_number 63
loop_
_symmetry_equiv_pos_site_id
_symmetry_equiv_pos_as_xyz
1 '-x, y, -z+1/2'
2 '-x, -y, z+1/2'
3 '-x, y, z'
4 '-x, -y, -z'
5 'x, -y, z+1/2'
6 'x, y, -z+1/2'
7 'x, -y, -z'
8 'x, y, z'
9 '-x+1/2, y+1/2, -z+1/2'
10 '-x+1/2, -y+1/2, z+1/2'
11 '-x+1/2, y+1/2, z'
12 '-x+1/2, -y+1/2, -z'
13 'x+1/2, -y+1/2, z+1/2'
14 'x+1/2, y+1/2, -z+1/2'
15 'x+1/2, -y+1/2, -z'
16 'x+1/2, y+1/2, z'
loop_
_atom_type_symbol
_atom_type_oxidation_number
In0+ 0
Sb0+ 0
loop_
_atom_site_label
_atom_site_type_symbol
_atom_site_symmetry_multiplicity
_atom_site_Wyckoff_symbol
_atom_site_fract_x
_atom_site_fract_y
_atom_site_fract_z
_atom_site_B_iso_or_equiv
_atom_site_occupancy
_atom_site_attached_hydrogens
In1 In0+ 4 c 0 0.120(1) 0.25 . 1. 0
In2 In0+ 8 f 0 0.410(1) 0.089(1) . 1. 0
Sb1 Sb0+ 4 c 0 0.620(1) 0.25 . 1. 0
Sb2 Sb0+ 8 f 0 0.910(1) 0.081(1) . 1. 0
#End of TTdata_157947-ICSD