
#(C) 2017 by FIZ Karlsruhe - Leibniz Institute for Information Infrastructure.  All rights reserved.
data_15924-ICSD
_database_code_ICSD 15924
_audit_creation_date 1984-09-04
_audit_update_record 2012-02-01
_chemical_name_systematic 'Magnesium sulfate(VI) hydrate'
_chemical_formula_structural 'Mg (S O4) (H2 O)'
_chemical_formula_sum 'H2 Mg1 O5 S1'
_chemical_name_structure_type MgSO4H2O
_chemical_name_mineral Kieserite
_exptl_crystal_density_diffrn 2.6
_publ_section_title 'Das Kristallgitter des Kieserits Mg S O4 H2 O'
loop_
_citation_id
_citation_journal_full
_citation_year
_citation_journal_volume
_citation_page_first
_citation_page_last
_citation_journal_id_ASTM
primary Naturwissenschaften 1957 44 338 339 NATWAY
loop_
_publ_author_name
'Leonhardt, J.'
'Weiss, R.'
_cell_length_a 6.886
_cell_length_b 7.61
_cell_length_c 7.63
_cell_angle_alpha 90.
_cell_angle_beta 117.72
_cell_angle_gamma 90.
_cell_volume 353.94
_cell_formula_units_Z 4
_symmetry_space_group_name_H-M 'C 1 2/c 1'
_symmetry_Int_Tables_number 15
loop_
_symmetry_equiv_pos_site_id
_symmetry_equiv_pos_as_xyz
1 'x, -y, z+1/2'
2 '-x, -y, -z'
3 '-x, y, -z+1/2'
4 'x, y, z'
5 'x+1/2, -y+1/2, z+1/2'
6 '-x+1/2, -y+1/2, -z'
7 '-x+1/2, y+1/2, -z+1/2'
8 'x+1/2, y+1/2, z'
loop_
_atom_type_symbol
_atom_type_oxidation_number
Mg2+ 2
S6+ 6
O2- -2
H1+ 1
loop_
_atom_site_label
_atom_site_type_symbol
_atom_site_symmetry_multiplicity
_atom_site_Wyckoff_symbol
_atom_site_fract_x
_atom_site_fract_y
_atom_site_fract_z
_atom_site_B_iso_or_equiv
_atom_site_occupancy
_atom_site_attached_hydrogens
Mg1 Mg2+ 4 b 0 0.5 0 . 1. 0
S1 S6+ 4 e 0 0.158 0.25 . 1. 0
O1 O2- 4 e 0 0.64 0.25 . 1. 0
O2 O2- 8 f 0.113 0.273 0.167 . 1. 0
O3 O2- 8 f 0.167 0.043 0.413 . 1. 0
#End of TTdata_15924-ICSD