
#(C) 2017 by FIZ Karlsruhe - Leibniz Institute for Information Infrastructure.  All rights reserved.
data_159272-ICSD
_database_code_ICSD 159272
_audit_creation_date 2008-08-01
_chemical_name_systematic 'Aluminium phosphate(V) - HP'
_chemical_formula_structural 'Al (P O4)'
_chemical_formula_sum 'Al1 O4 P1'
_chemical_name_structure_type CrVO4
_exptl_crystal_density_diffrn 3.84
_cell_measurement_pressure 13900000.
_publ_section_title

;
Six-fold-coordinated phosphorus by oxygen in Al P O4 quartz homeotype under
high pressure
;
loop_
_citation_id
_citation_journal_full
_citation_year
_citation_journal_volume
_citation_page_first
_citation_page_last
_citation_journal_id_ASTM
primary 'Nature Materials' 2007 6 698 702 NMAACR
loop_
_publ_author_name
'Pellicer-Porres, J.'
'Saitta, A.M.'
'Polian, A.'
'Itie, J.P.'
'Hanfland, M.'
_cell_length_a 5.0365(7)
_cell_length_b 7.2908(9)
_cell_length_c 5.7491(9)
_cell_angle_alpha 90.
_cell_angle_beta 90.
_cell_angle_gamma 90.
_cell_volume 211.11
_cell_formula_units_Z 4
_symmetry_space_group_name_H-M 'C m c m'
_symmetry_Int_Tables_number 63
_refine_ls_R_factor_all 0.1
loop_
_symmetry_equiv_pos_site_id
_symmetry_equiv_pos_as_xyz
1 '-x, y, -z+1/2'
2 '-x, -y, z+1/2'
3 '-x, y, z'
4 '-x, -y, -z'
5 'x, -y, z+1/2'
6 'x, y, -z+1/2'
7 'x, -y, -z'
8 'x, y, z'
9 '-x+1/2, y+1/2, -z+1/2'
10 '-x+1/2, -y+1/2, z+1/2'
11 '-x+1/2, y+1/2, z'
12 '-x+1/2, -y+1/2, -z'
13 'x+1/2, -y+1/2, z+1/2'
14 'x+1/2, y+1/2, -z+1/2'
15 'x+1/2, -y+1/2, -z'
16 'x+1/2, y+1/2, z'
loop_
_atom_type_symbol
_atom_type_oxidation_number
Al3+ 3
P5+ 5
O2- -2
loop_
_atom_site_label
_atom_site_type_symbol
_atom_site_symmetry_multiplicity
_atom_site_Wyckoff_symbol
_atom_site_fract_x
_atom_site_fract_y
_atom_site_fract_z
_atom_site_B_iso_or_equiv
_atom_site_occupancy
_atom_site_attached_hydrogens
Al1 Al3+ 4 a 0 0 0 . 1. 0
P1 P5+ 4 c 0 0.3504(7) 0.25 . 1. 0
O1 O2- 8 g 0.249(1) 0.9794(7) 0.25 . 1. 0
O2 O2- 8 f 0 0.7519(8) 0.969(1) . 1. 0
#End of TTdata_159272-ICSD