
#(C) 2017 by FIZ Karlsruhe - Leibniz Institute for Information Infrastructure.  All rights reserved.
data_159345-ICSD
_database_code_ICSD 159345
_audit_creation_date 2008-08-01
_chemical_name_systematic 'Silver bismuth telluride'
_chemical_formula_structural 'Ag Bi Te2'
_chemical_formula_sum 'Ag1 Bi1 Te2'
_chemical_name_structure_type AgBiSe2
_chemical_name_mineral Volynskite
_exptl_crystal_density_diffrn 7.94
_publ_section_title

;
Crystal chemistry and crystallography of some minerals in the tetradymite
group
;
loop_
_citation_id
_citation_journal_full
_citation_year
_citation_journal_volume
_citation_page_first
_citation_page_last
_citation_journal_id_ASTM
primary 'American Mineralogist' 1991 76 257 265 AMMIAY
loop_
_publ_author_name
'Bayliss, P.'
_cell_length_a 4.468(7)
_cell_length_b 4.468(7)
_cell_length_c 20.75(5)
_cell_angle_alpha 90.
_cell_angle_beta 90.
_cell_angle_gamma 120.
_cell_volume 358.74
_cell_formula_units_Z 3
_symmetry_space_group_name_H-M 'P -3 m 1'
_symmetry_Int_Tables_number 164
loop_
_symmetry_equiv_pos_site_id
_symmetry_equiv_pos_as_xyz
1 'x-y, -y, -z'
2 '-x, -x+y, -z'
3 'y, x, -z'
4 'x-y, x, -z'
5 'y, -x+y, -z'
6 '-x, -y, -z'
7 '-x+y, y, z'
8 'x, x-y, z'
9 '-y, -x, z'
10 '-x+y, -x, z'
11 '-y, x-y, z'
12 'x, y, z'
loop_
_atom_type_symbol
_atom_type_oxidation_number
Ag1+ 1
Bi3+ 3
Te2- -2
loop_
_atom_site_label
_atom_site_type_symbol
_atom_site_symmetry_multiplicity
_atom_site_Wyckoff_symbol
_atom_site_fract_x
_atom_site_fract_y
_atom_site_fract_z
_atom_site_B_iso_or_equiv
_atom_site_occupancy
_atom_site_attached_hydrogens
Ag1 Ag1+ 1 b 0 0 0.5 . 1. 0
Ag2 Ag1+ 2 d 0.3333 0.6667 0.6667 . 1. 0
Bi1 Bi3+ 1 a 0 0 0 . 1. 0
Bi2 Bi3+ 2 d 0.3333 0.6667 0.163 . 1. 0
Te1 Te2- 2 c 0 0 0.25 . 1. 0
Te2 Te2- 2 d 0.3333 0.6667 0.417 . 1. 0
Te3 Te2- 2 d 0.3333 0.6667 0.917 . 1. 0
#End of TTdata_159345-ICSD