
#(C) 2017 by FIZ Karlsruhe - Leibniz Institute for Information Infrastructure.  All rights reserved.
data_15972-ICSD
_database_code_ICSD 15972
_audit_creation_date 1980-01-01
_audit_update_record 2005-10-01
_chemical_name_systematic 'Strontium bromide'
_chemical_formula_structural 'Sr Br2'
_chemical_formula_sum 'Br2 Sr1'
_chemical_name_structure_type PbCl2
_exptl_crystal_density_diffrn 3.64
_publ_section_title 'The crystal structure of Sr Br2'
loop_
_citation_id
_citation_journal_full
_citation_year
_citation_journal_volume
_citation_page_first
_citation_page_last
_citation_journal_id_ASTM
primary

;
Zeitschrift fuer Kristallographie, Kristallgeometrie, Kristallphysik,
Kristallchemie (-144,1977)
; 1939 101 406 411 ZEKGAX
loop_
_publ_author_name
'Kamermans, M.A.'
_cell_length_a 9.2
_cell_length_b 11.42
_cell_length_c 4.3
_cell_angle_alpha 90.
_cell_angle_beta 90.
_cell_angle_gamma 90.
_cell_volume 451.78
_cell_formula_units_Z 4
_symmetry_space_group_name_H-M 'P b n m'
_symmetry_Int_Tables_number 62
loop_
_symmetry_equiv_pos_site_id
_symmetry_equiv_pos_as_xyz
1 '-x+1/2, y+1/2, z'
2 'x, y, -z+1/2'
3 'x+1/2, -y+1/2, z+1/2'
4 '-x, -y, -z'
5 'x+1/2, -y+1/2, -z'
6 '-x, -y, z+1/2'
7 '-x+1/2, y+1/2, -z+1/2'
8 'x, y, z'
loop_
_atom_type_symbol
_atom_type_oxidation_number
Br1- -1
Sr2+ 2
loop_
_atom_site_label
_atom_site_type_symbol
_atom_site_symmetry_multiplicity
_atom_site_Wyckoff_symbol
_atom_site_fract_x
_atom_site_fract_y
_atom_site_fract_z
_atom_site_B_iso_or_equiv
_atom_site_occupancy
_atom_site_attached_hydrogens
Br1 Br1- 4 c 0.1194 0.1028 0.25 . 1. 0
Br2 Br1- 4 c -.1583 0.6139 0.25 . 1. 0
Sr1 Sr2+ 4 c 0.1083 -.1889 0.25 . 1. 0
#End of TTdata_15972-ICSD