
#(C) 2017 by FIZ Karlsruhe - Leibniz Institute for Information Infrastructure.  All rights reserved.
data_159927-ICSD
_database_code_ICSD 159927
_audit_creation_date 2008-08-01
_audit_update_record 2014-08-01
_chemical_name_systematic 'Lanthanum ruthenium boride (3/8/6)'
_chemical_formula_structural 'La3 Ru8 B6'
_chemical_formula_sum 'B6 La3 Ru8'
_chemical_name_structure_type La3Ru8B6
_exptl_crystal_density_diffrn 8.97
_cell_measurement_temperature 293.
_publ_section_title
'La3 Ru8 B6 and Y3 Os8 B6, new members of a homologous series R (A)n M3n-1 B2n'
loop_
_citation_id
_citation_journal_full
_citation_year
_citation_journal_volume
_citation_page_first
_citation_page_last
_citation_journal_id_ASTM
primary 'Journal of Solid State Chemistry' 2007 180 2740 2746 JSSCBI
loop_
_publ_author_name
'Sologub, O.L.'
'Salamakha, L.P.'
'Noel, H.'
'Roisnel, T.'
'Goncalves, A.P.'
_cell_length_a 5.5572(5)
_cell_length_b 9.7930(9)
_cell_length_c 17.5523(17)
_cell_angle_alpha 90.
_cell_angle_beta 90.
_cell_angle_gamma 90.
_cell_volume 955.23
_cell_formula_units_Z 4
_symmetry_space_group_name_H-M 'F m m m'
_symmetry_Int_Tables_number 69
_refine_ls_R_factor_all 0.0736
loop_
_symmetry_equiv_pos_site_id
_symmetry_equiv_pos_as_xyz
1 'x, y, -z'
2 'x, -y, z'
3 '-x, y, z'
4 '-x, -y, -z'
5 '-x, -y, z'
6 '-x, y, -z'
7 'x, -y, -z'
8 'x, y, z'
9 'x, y+1/2, -z+1/2'
10 'x, -y+1/2, z+1/2'
11 '-x, y+1/2, z+1/2'
12 '-x, -y+1/2, -z+1/2'
13 '-x, -y+1/2, z+1/2'
14 '-x, y+1/2, -z+1/2'
15 'x, -y+1/2, -z+1/2'
16 'x, y+1/2, z+1/2'
17 'x+1/2, y, -z+1/2'
18 'x+1/2, -y, z+1/2'
19 '-x+1/2, y, z+1/2'
20 '-x+1/2, -y, -z+1/2'
21 '-x+1/2, -y, z+1/2'
22 '-x+1/2, y, -z+1/2'
23 'x+1/2, -y, -z+1/2'
24 'x+1/2, y, z+1/2'
25 'x+1/2, y+1/2, -z'
26 'x+1/2, -y+1/2, z'
27 '-x+1/2, y+1/2, z'
28 '-x+1/2, -y+1/2, -z'
29 '-x+1/2, -y+1/2, z'
30 '-x+1/2, y+1/2, -z'
31 'x+1/2, -y+1/2, -z'
32 'x+1/2, y+1/2, z'
loop_
_atom_type_symbol
_atom_type_oxidation_number
La0+ 0
Ru0+ 0
B0+ 0
loop_
_atom_site_label
_atom_site_type_symbol
_atom_site_symmetry_multiplicity
_atom_site_Wyckoff_symbol
_atom_site_fract_x
_atom_site_fract_y
_atom_site_fract_z
_atom_site_B_iso_or_equiv
_atom_site_occupancy
_atom_site_attached_hydrogens
La1 La0+ 8 i 0 0 0.1850(2) 0.65(1) 1 0
La2 La0+ 4 a 0 0 0 0.59(2) 1 0
Ru1 Ru0+ 16 j 0.25 0.25 0.0853(2) 0.60(1) 1 0
Ru2 Ru0+ 8 i 0 0 0.4204(4) 0.59(1) 1 0
Ru3 Ru0+ 8 f 0.25 0.25 0.25 0.55(2) 1 0
B1 B0+ 16 m 0 0.21(1) 0.329(6) 0.9 1 0
B2 B0+ 8 h 0 0.30(1) 0 0.9 1 0
#End of TTdata_159927-ICSD