
#(C) 2017 by FIZ Karlsruhe - Leibniz Institute for Information Infrastructure.  All rights reserved.
data_160454-ICSD
_database_code_ICSD 160454
_audit_creation_date 2008-08-01
_chemical_name_systematic 'Bismuth chromate(III) - HT'
_chemical_formula_structural 'Bi (Cr O3)'
_chemical_formula_sum 'Bi1 Cr1 O3'
_chemical_name_structure_type Perovskite-GdFeO3
_exptl_crystal_density_diffrn 8.79
_cell_measurement_temperature 490.
_publ_section_title

;
Neutron powder diffraction study on the crystal and magnetic structures of Bi
Cr O3
;
loop_
_citation_id
_citation_journal_full
_citation_year
_citation_journal_volume
_citation_page_first
_citation_page_last
_citation_journal_id_ASTM
primary 'Chemistry of Materials' 2008 20 3765 3769 CMATEX
loop_
_publ_author_name
'Belik, A.A.'
'Iikubo, S.'
'Kodama, K.'
'Igawa, N.'
'Shamoto, S.'
'Takayama Muromachi, E.'
_cell_length_a 5.54568(12)
_cell_length_b 7.7577(2)
_cell_length_c 5.42862(12)
_cell_angle_alpha 90.
_cell_angle_beta 90.
_cell_angle_gamma 90.
_cell_volume 233.55
_cell_formula_units_Z 4
_symmetry_space_group_name_H-M 'P n m a'
_symmetry_Int_Tables_number 62
_refine_ls_R_factor_all 0.0141
loop_
_symmetry_equiv_pos_site_id
_symmetry_equiv_pos_as_xyz
1 'x+1/2, y, -z+1/2'
2 'x, -y+1/2, z'
3 '-x+1/2, y+1/2, z+1/2'
4 '-x, -y, -z'
5 '-x+1/2, -y, z+1/2'
6 '-x, y+1/2, -z'
7 'x+1/2, -y+1/2, -z+1/2'
8 'x, y, z'
loop_
_atom_type_symbol
_atom_type_oxidation_number
Bi3+ 3
Cr3+ 3
O2- -2
loop_
_atom_site_label
_atom_site_type_symbol
_atom_site_symmetry_multiplicity
_atom_site_Wyckoff_symbol
_atom_site_fract_x
_atom_site_fract_y
_atom_site_fract_z
_atom_site_B_iso_or_equiv
_atom_site_occupancy
_atom_site_attached_hydrogens
Bi1 Bi3+ 4 c 0.0429(2) 0.25 0.9954(3) 1.02(3) 1. 0
Cr1 Cr3+ 4 b 0 0 0.5 0.46(4) 1. 0
O1 O2- 4 c 0.4783(3) 0.25 0.0798(3) 0.65(3) 1. 0
O2 O2- 8 d 0.2959(2) 0.03958(16) 0.7030(2) 1.01(3) 1. 0
#End of TTdata_160454-ICSD