
data_161691-ICSD
_database_code_ICSD 161691
_audit_creation_date 2009-02-01
_audit_update_record 2013-08-01
_chemical_name_systematic 'Tellurium oxide'
_chemical_formula_structural 'Te O2'
_chemical_formula_sum 'O2 Te1'
_chemical_name_structure_type Cristobalite(alpha)
_exptl_crystal_density_diffrn 6.01
_cell_measurement_temperature 293.
_cell_length_a 4.810(3)
_cell_length_b 4.810(3)
_cell_length_c 7.621(7)
_cell_angle_alpha 90.
_cell_angle_beta 90.
_cell_angle_gamma 90.
_cell_volume 176.32
_cell_formula_units_Z 4
_symmetry_space_group_name_H-M 'P 41 21 2'
_symmetry_Int_Tables_number 92
_refine_ls_R_factor_all 0.263
loop_
_symmetry_equiv_pos_site_id
_symmetry_equiv_pos_as_xyz
1 'x+1/2, -y+1/2, -z+3/4'
2 '-x+1/2, y+1/2, -z+1/4'
3 '-y, -x, -z+1/2'
4 'y, x, -z'
5 'y+1/2, -x+1/2, z+3/4'
6 '-y+1/2, x+1/2, z+1/4'
7 '-x, -y, z+1/2'
8 'x, y, z'
loop_
_atom_type_symbol
_atom_type_oxidation_number
Te4+ 4
O2- -2
loop_
_atom_site_label
_atom_site_type_symbol
_atom_site_symmetry_multiplicity
_atom_site_Wyckoff_symbol
_atom_site_fract_x
_atom_site_fract_y
_atom_site_fract_z
_atom_site_B_iso_or_equiv
_atom_site_occupancy
_atom_site_attached_hydrogens
Te1 Te4+ 4 a 0.036776 0.036776 0 0.00895 1. 0
O1 O2- 8 b 0.153876 0.270876 0.195876 0.02458 1. 0
