
#(C) 2017 by FIZ Karlsruhe - Leibniz Institute for Information Infrastructure.  All rights reserved.
data_16171-ICSD
_database_code_ICSD 16171
_audit_creation_date 1980-01-01
_audit_update_record 2014-08-01
_chemical_name_systematic 'Yttrium chromium boride (1/1/4)'
_chemical_formula_structural 'Y Cr B4'
_chemical_formula_sum 'B4 Cr1 Y1'
_chemical_name_structure_type FeSmB4-CrYB4
_exptl_crystal_density_diffrn 5.16
_publ_section_title 'Crystal structure of the compound Y Cr B4 and its anlalogs'
loop_
_citation_id
_citation_journal_full
_citation_year
_citation_journal_volume
_citation_page_first
_citation_page_last
_citation_journal_id_ASTM
primary Kristallografiya 1970 15 372 374 KRISAJ
loop_
_publ_author_name
'Kuz'ma, Yu.B.'
_cell_length_a 5.972
_cell_length_b 11.46
_cell_length_c 3.461
_cell_angle_alpha 90.
_cell_angle_beta 90.
_cell_angle_gamma 90.
_cell_volume 236.87
_cell_formula_units_Z 4
_symmetry_space_group_name_H-M 'P b a m'
_symmetry_Int_Tables_number 55
_refine_ls_R_factor_all 0.115
loop_
_symmetry_equiv_pos_site_id
_symmetry_equiv_pos_as_xyz
1 'x+1/2, -y+1/2, z'
2 '-x+1/2, y+1/2, z'
3 'x, y, -z'
4 '-x, -y, -z'
5 '-x+1/2, y+1/2, -z'
6 'x+1/2, -y+1/2, -z'
7 '-x, -y, z'
8 'x, y, z'
loop_
_atom_type_symbol
_atom_type_oxidation_number
Y0+ 0
Cr0+ 0
B0+ 0
loop_
_atom_site_label
_atom_site_type_symbol
_atom_site_symmetry_multiplicity
_atom_site_Wyckoff_symbol
_atom_site_fract_x
_atom_site_fract_y
_atom_site_fract_z
_atom_site_B_iso_or_equiv
_atom_site_occupancy
_atom_site_attached_hydrogens
Y1 Y0+ 4 g 0.125 0.15 0 . 1. 0
Cr1 Cr0+ 4 g 0.125 0.419 0 . 1. 0
B1 B0+ 4 h 0.28 0.315 0.5 . 1. 0
B2 B0+ 4 h 0.34 0.465 0.5 . 1. 0
B3 B0+ 4 h 0.385 0.05 0.5 . 1. 0
B4 B0+ 4 h 0.485 0.18 0.5 . 1. 0
#End of TTdata_16171-ICSD