
#(C) 2017 by FIZ Karlsruhe - Leibniz Institute for Information Infrastructure.  All rights reserved.
data_162061-ICSD
_database_code_ICSD 162061
_audit_creation_date 2009-02-01
_chemical_name_systematic 'Dicopper diarsenate(V) - beta'
_chemical_formula_structural 'Cu2 (As2 O7)'
_chemical_formula_sum 'As2 Cu2 O7'
_chemical_name_structure_type Sc2Si2O7
_exptl_crystal_density_diffrn 4.81
_cell_measurement_temperature 673.
_publ_section_title
'The reversible alpha -> beta phase transition of Cu2 As2 O7'
loop_
_citation_id
_citation_journal_full
_citation_year
_citation_journal_volume
_citation_page_first
_citation_page_last
_citation_journal_id_ASTM
primary 'Crystal Growth and Design' 2004 4 1229 1235 CGDEFU
loop_
_publ_author_name
'Weil, M.'
'Lengauer, C.'
'Fueglein, E.'
'Baran, E.J.'
_cell_length_a 7.0987(3)
_cell_length_b 8.2777(4)
_cell_length_c 4.8666(2)
_cell_angle_alpha 90.
_cell_angle_beta 110.206(4)
_cell_angle_gamma 90.
_cell_volume 268.37
_cell_formula_units_Z 2
_symmetry_space_group_name_H-M 'C 1 2/m 1'
_symmetry_Int_Tables_number 12
_refine_ls_R_factor_all 0.11
loop_
_symmetry_equiv_pos_site_id
_symmetry_equiv_pos_as_xyz
1 '-x, y, -z'
2 '-x, -y, -z'
3 'x, -y, z'
4 'x, y, z'
5 '-x+1/2, y+1/2, -z'
6 '-x+1/2, -y+1/2, -z'
7 'x+1/2, -y+1/2, z'
8 'x+1/2, y+1/2, z'
loop_
_atom_type_symbol
_atom_type_oxidation_number
Cu2+ 2
As5+ 5
O2- -2
loop_
_atom_site_label
_atom_site_type_symbol
_atom_site_symmetry_multiplicity
_atom_site_Wyckoff_symbol
_atom_site_fract_x
_atom_site_fract_y
_atom_site_fract_z
_atom_site_B_iso_or_equiv
_atom_site_occupancy
_atom_site_attached_hydrogens
Cu1 Cu2+ 4 h 0. 0.314(2) 0.5 0.033(6) 1. 0
As1 As5+ 4 i 0.204(2) 0. -0.095(4) 0.016(18) 1. 0
O1 O2- 2 a 0. 0. 0. 0.122(44) 1. 0
O2 O2- 4 i 0.397(8) 0. 0.238(9) 0.041(20) 1. 0
O3 O2- 8 j 0.225(7) 0.165(4) 0.697(9) 0.062(17) 1. 0
#End of TTdata_162061-ICSD