
#(C) 2017 by FIZ Karlsruhe - Leibniz Institute for Information Infrastructure.  All rights reserved.
data_162062-ICSD
_database_code_ICSD 162062
_audit_creation_date 2009-02-01
_chemical_name_systematic 'Dicopper diarsenate(V) - alpha'
_chemical_formula_structural 'Cu2 (As2 O7)'
_chemical_formula_sum 'As2 Cu2 O7'
_chemical_name_structure_type Cu2P2O7
_exptl_crystal_density_diffrn 4.74
_cell_measurement_temperature 295.
_publ_section_title
'The reversible alpha -> beta phase transition of Cu2 As2 O7'
loop_
_citation_id
_citation_journal_full
_citation_year
_citation_journal_volume
_citation_page_first
_citation_page_last
_citation_journal_id_ASTM
primary 'Crystal Growth and Design' 2004 4 1229 1235 CGDEFU
loop_
_publ_author_name
'Weil, M.'
'Lengauer, C.'
'Fueglein, E.'
'Baran, E.J.'
_cell_length_a 7.237(3)
_cell_length_b 8.2557(17)
_cell_length_c 9.780(3)
_cell_angle_alpha 90.
_cell_angle_beta 111.03(2)
_cell_angle_gamma 90.
_cell_volume 545.4
_cell_formula_units_Z 4
_symmetry_space_group_name_H-M 'C 1 2/c 1'
_symmetry_Int_Tables_number 15
_refine_ls_R_factor_all 0.0278
loop_
_symmetry_equiv_pos_site_id
_symmetry_equiv_pos_as_xyz
1 'x, -y, z+1/2'
2 '-x, -y, -z'
3 '-x, y, -z+1/2'
4 'x, y, z'
5 'x+1/2, -y+1/2, z+1/2'
6 '-x+1/2, -y+1/2, -z'
7 '-x+1/2, y+1/2, -z+1/2'
8 'x+1/2, y+1/2, z'
loop_
_atom_type_symbol
_atom_type_oxidation_number
Cu2+ 2
As5+ 5
O2- -2
loop_
_atom_site_label
_atom_site_type_symbol
_atom_site_symmetry_multiplicity
_atom_site_Wyckoff_symbol
_atom_site_fract_x
_atom_site_fract_y
_atom_site_fract_z
_atom_site_B_iso_or_equiv
_atom_site_occupancy
_atom_site_attached_hydrogens
Cu1 Cu2+ 8 f 0.47112(5) 0.18426(4) 0.00979(3) 0.01103(12) 1. 0
As1 As5+ 8 f 0.19984(3) 0.01061(3) 0.20548(3) 0.00778(11) 1. 0
O1 O2- 8 f 0.1102(3) 0.4987(2) 0.1328(2) 0.0124(3) 1. 0
O2 O2- 8 f 0.2309(3) 0.1668(2) 0.1076(2) 0.0123(3) 1. 0
O3 O2- 8 f 0.3310(4) 0.3390(3) 0.3848(2) 0.0194(4) 1. 0
O4 O2- 4 e 0 0.0719(4) 0.25 0.0247(6) 1. 0
loop_
_atom_site_aniso_label
_atom_site_aniso_type_symbol
_atom_site_aniso_U_11
_atom_site_aniso_U_22
_atom_site_aniso_U_33
_atom_site_aniso_U_12
_atom_site_aniso_U_13
_atom_site_aniso_U_23
Cu1 Cu2+ 0.01361(18) 0.00652(17) 0.00996(17) 0.00064(9) 0.00051(12) 0.00009(8)
As1 As5+ 0.00889(16) 0.00727(16) 0.00667(16) -0.00064(6) 0.00211(11) 0.00055(6)
O1 O2- 0.0150(8) 0.0086(8) 0.0090(9) 0.0015(6) -0.0016(7) -0.0008(5)
O2 O2- 0.0138(8) 0.0111(7) 0.0135(8) 0.0020(6) 0.0067(6) 0.0054(6)
O3 O2- 0.0245(11) 0.0112(8) 0.0183(9) 0.0039(7) 0.0025(8) 0.0068(7)
O4 O2- 0.0182(13) 0.0277(16) 0.0362(17) 0. 0.0193(12) 0.
#End of TTdata_162062-ICSD