
#(C) 2017 by FIZ Karlsruhe - Leibniz Institute for Information Infrastructure.  All rights reserved.
data_16218-ICSD
_database_code_ICSD 16218
_audit_creation_date 1980-01-01
_audit_update_record 1988-01-18
_chemical_name_systematic 'Lithium yttrium oxide - M'
_chemical_formula_structural 'Li Y O2'
_chemical_formula_sum 'Li1 O2 Y1'
_chemical_name_structure_type ErLiO2
_exptl_crystal_density_diffrn 4.12
_publ_section_title 'Zur Kristallstruktur von Li Y O2'
loop_
_citation_id
_citation_journal_full
_citation_year
_citation_journal_volume
_citation_page_first
_citation_page_last
_citation_journal_id_ASTM
primary 'Zeitschrift fuer Anorganische und Allgemeine Chemie (1950) (DE)' 1971
380 250 261 ZAACAB
loop_
_publ_author_name
'Stewner, F.'
'Hoppe, R.'
_cell_length_a 6.116
_cell_length_b 6.189
_cell_length_c 6.197
_cell_angle_alpha 90.
_cell_angle_beta 118.64
_cell_angle_gamma 90.
_cell_volume 205.87
_cell_formula_units_Z 4
_symmetry_space_group_name_H-M 'P 1 21/c 1'
_symmetry_Int_Tables_number 14
_refine_ls_R_factor_all 0.129
loop_
_symmetry_equiv_pos_site_id
_symmetry_equiv_pos_as_xyz
1 'x, -y+1/2, z+1/2'
2 '-x, -y, -z'
3 '-x, y+1/2, -z+1/2'
4 'x, y, z'
loop_
_atom_type_symbol
_atom_type_oxidation_number
Y3+ 3
O2- -2
Li1+ 1
loop_
_atom_site_label
_atom_site_type_symbol
_atom_site_symmetry_multiplicity
_atom_site_Wyckoff_symbol
_atom_site_fract_x
_atom_site_fract_y
_atom_site_fract_z
_atom_site_B_iso_or_equiv
_atom_site_occupancy
_atom_site_attached_hydrogens
Y1 Y3+ 4 e 0.2380(4) 0.1286(5) -.0152(4) 0.94 1. 0
O1 O2- 4 e 0.453(3) 0.402(5) 0.256(3) 1.2 1. 0
O2 O2- 4 e -.006(3) 0.165(4) 0.172(3) 1.2 1. 0
#End of TTdata_16218-ICSD