
#(C) 2017 by FIZ Karlsruhe - Leibniz Institute for Information Infrastructure.  All rights reserved.
data_16221-ICSD
_database_code_ICSD 16221
_audit_creation_date 1984-09-04
_audit_update_record 2014-08-01
_chemical_name_systematic 'Dilithium zinc silicide'
_chemical_formula_structural 'Li2 Zn Si'
_chemical_formula_sum 'Li2 Si1 Zn1'
_chemical_name_structure_type Li2ZnSi
_exptl_crystal_density_diffrn 2.77
_publ_section_title 'Zur Kenntnis des Li2 Zn Si'
loop_
_citation_id
_citation_journal_full
_citation_year
_citation_journal_volume
_citation_page_first
_citation_page_last
_citation_journal_id_ASTM
primary 'Zeitschrift fuer Anorganische und Allgemeine Chemie (1950) (DE)' 1971
382 40 47 ZAACAB
loop_
_publ_author_name
'Schoenemann, H.'
'Jacobs, H.'
'Schuster, H.U.'
_cell_length_a 4.247
_cell_length_b 4.247
_cell_length_c 16.448
_cell_angle_alpha 90.
_cell_angle_beta 90.
_cell_angle_gamma 120.
_cell_volume 256.93
_cell_formula_units_Z 4
_symmetry_space_group_name_H-M 'P -3 m 1'
_symmetry_Int_Tables_number 164
_refine_ls_R_factor_all 0.106
loop_
_symmetry_equiv_pos_site_id
_symmetry_equiv_pos_as_xyz
1 'x-y, -y, -z'
2 '-x, -x+y, -z'
3 'y, x, -z'
4 'x-y, x, -z'
5 'y, -x+y, -z'
6 '-x, -y, -z'
7 '-x+y, y, z'
8 'x, x-y, z'
9 '-y, -x, z'
10 '-x+y, -x, z'
11 '-y, x-y, z'
12 'x, y, z'
loop_
_atom_type_symbol
_atom_type_oxidation_number
Zn2+ 2
Si4- -4
Li1+ 1
loop_
_atom_site_label
_atom_site_type_symbol
_atom_site_symmetry_multiplicity
_atom_site_Wyckoff_symbol
_atom_site_fract_x
_atom_site_fract_y
_atom_site_fract_z
_atom_site_B_iso_or_equiv
_atom_site_occupancy
_atom_site_attached_hydrogens
Zn1 Zn2+ 2 c 0 0 0.135(1) . 1. 0
Zn2 Zn2+ 2 c 0 0 0.385(1) . 1. 0
Si1 Si4- 2 d 0.3333 0.6667 0.375(5) . 1. 0
Si2 Si4- 2 d 0.3333 0.6667 0.875(5) . 1. 0
Li1 Li1+ 2 d 0.3333 0.6667 0.042 . 1. 0
Li2 Li1+ 2 d 0.3333 0.6667 0.208 . 1. 0
Li3 Li1+ 2 d 0.3333 0.6667 0.542 . 1. 0
Li4 Li1+ 2 d 0.3333 0.6667 0.708 . 1. 0
#End of TTdata_16221-ICSD