
#(C) 2017 by FIZ Karlsruhe - Leibniz Institute for Information Infrastructure.  All rights reserved.
data_162677-ICSD
_database_code_ICSD 162677
_audit_creation_date 2009-08-01
_chemical_name_systematic 'Lanthanum chromium nitride (3/2/6)'
_chemical_formula_structural 'La3 Cr2 N6'
_chemical_formula_sum 'Cr2 La3 N6'
_exptl_crystal_density_diffrn 6.6
_publ_section_title 'Synthesis, crystal and electronic structure of La3 Cr2 N6'
loop_
_citation_id
_citation_journal_full
_citation_year
_citation_journal_volume
_citation_page_first
_citation_page_last
_citation_journal_id_ASTM
primary 'Solid State Communications' 2009 149 273 276 SSCOA4
loop_
_publ_author_name
'Chevire, F.'
'Ranjan, C.'
'DiSalvo, F.J.'
_cell_length_a 3.8525(5)
_cell_length_b 3.8525(5)
_cell_length_c 20.508(4)
_cell_angle_alpha 90.
_cell_angle_beta 90.
_cell_angle_gamma 90.
_cell_volume 304.37
_cell_formula_units_Z 2
_symmetry_space_group_name_H-M 'I 4/m m m'
_symmetry_Int_Tables_number 139
_refine_ls_R_factor_all 0.0302
loop_
_symmetry_equiv_pos_site_id
_symmetry_equiv_pos_as_xyz
1 'y, x, -z'
2 '-y, -x, -z'
3 '-y, x, -z'
4 'y, -x, -z'
5 '-x, y, -z'
6 'x, -y, -z'
7 'x, y, -z'
8 '-x, -y, -z'
9 '-y, -x, z'
10 'y, x, z'
11 'y, -x, z'
12 '-y, x, z'
13 'x, -y, z'
14 '-x, y, z'
15 '-x, -y, z'
16 'x, y, z'
17 'y+1/2, x+1/2, -z+1/2'
18 '-y+1/2, -x+1/2, -z+1/2'
19 '-y+1/2, x+1/2, -z+1/2'
20 'y+1/2, -x+1/2, -z+1/2'
21 '-x+1/2, y+1/2, -z+1/2'
22 'x+1/2, -y+1/2, -z+1/2'
23 'x+1/2, y+1/2, -z+1/2'
24 '-x+1/2, -y+1/2, -z+1/2'
25 '-y+1/2, -x+1/2, z+1/2'
26 'y+1/2, x+1/2, z+1/2'
27 'y+1/2, -x+1/2, z+1/2'
28 '-y+1/2, x+1/2, z+1/2'
29 'x+1/2, -y+1/2, z+1/2'
30 '-x+1/2, y+1/2, z+1/2'
31 '-x+1/2, -y+1/2, z+1/2'
32 'x+1/2, y+1/2, z+1/2'
loop_
_atom_type_symbol
_atom_type_oxidation_number
Cr4+ 4.5
La3+ 3
N3- -3
loop_
_atom_site_label
_atom_site_type_symbol
_atom_site_symmetry_multiplicity
_atom_site_Wyckoff_symbol
_atom_site_fract_x
_atom_site_fract_y
_atom_site_fract_z
_atom_site_B_iso_or_equiv
_atom_site_occupancy
_atom_site_attached_hydrogens
Cr1 Cr4+ 4 e 0 0 0.3987(1) 0.025(1) 1. 0
La1 La3+ 2 a 0 0 0 0.014(1) 1. 0
La2 La3+ 4 e 0 0 0.1838(1) 0.009(1) 1. 0
N1 N3- 4 e 0 0 0.3053(3) 0.010(1) 1. 0
N2 N3- 8 g 0 0.5 0.0863(3) 0.033(2) 1. 0
loop_
_atom_site_aniso_label
_atom_site_aniso_type_symbol
_atom_site_aniso_U_11
_atom_site_aniso_U_22
_atom_site_aniso_U_33
_atom_site_aniso_U_12
_atom_site_aniso_U_13
_atom_site_aniso_U_23
Cr1 Cr4+ 0.014(1) 0.014(1) 0.016(1) 0. 0. 0.
La1 La3+ 0.010(1) 0.010(1) 0.007(1) 0. 0. 0.
La2 La3+ 0.033(1) 0.033(1) 0.010(1) 0. 0. 0.
N1 N3- 0.012(2) 0.012(2) 0.004(2) 0. 0. 0.
N2 N3- 0.043(5) 0.037(5) 0.018(3) 0. 0. 0.
#End of TTdata_162677-ICSD