
#(C) 2017 by FIZ Karlsruhe - Leibniz Institute for Information Infrastructure.  All rights reserved.
data_163134-ICSD
_database_code_ICSD 163134
_audit_creation_date 2009-08-01
_chemical_name_systematic 'Palladium lead telluride (3/2/2)'
_chemical_formula_structural 'Pd3 Pb2 Te2'
_chemical_formula_sum 'Pb2 Pd3 Te2'
_chemical_name_mineral Pasavaite
_exptl_crystal_density_diffrn 10.18
_publ_section_title

;
Pasavaite, Pd3 Pb2 Te2, a new platinum-group mineral species from the Noril'sk
- Talnakh Ni-Cu camp, Russia
;
loop_
_citation_id
_citation_journal_full
_citation_year
_citation_journal_volume
_citation_page_first
_citation_page_last
_citation_journal_id_ASTM
primary 'Canadian Mineralogist' 2009 47 53 62 CAMIA6
loop_
_publ_author_name
'Vymazalova, A.'
'Laufek, F.'
'Drabek, M.'
'Haloda, J.'
'Sidorinova, T.'
_cell_length_a 8.599(1)
_cell_length_b 5.938(6)
_cell_length_c 6.3173(8)
_cell_angle_alpha 90.
_cell_angle_beta 90.
_cell_angle_gamma 90.
_cell_volume 322.57
_cell_formula_units_Z 2
_symmetry_space_group_name_H-M 'P m m n Z'
_symmetry_Int_Tables_number 59
_refine_ls_R_factor_all 0.037
loop_
_symmetry_equiv_pos_site_id
_symmetry_equiv_pos_as_xyz
1 'x+1/2, y+1/2, -z'
2 '-x, y+1/2, -z'
3 'x+1/2, -y, -z'
4 '-x, -y, -z'
5 '-x+1/2, -y+1/2, z'
6 'x, -y+1/2, z'
7 '-x+1/2, y, z'
8 'x, y, z'
loop_
_atom_type_symbol
_atom_type_oxidation_number
Pb2+ 2
Te2- -2
Pd0+ 0
loop_
_atom_site_label
_atom_site_type_symbol
_atom_site_symmetry_multiplicity
_atom_site_Wyckoff_symbol
_atom_site_fract_x
_atom_site_fract_y
_atom_site_fract_z
_atom_site_B_iso_or_equiv
_atom_site_occupancy
_atom_site_attached_hydrogens
Pb1 Pb2+ 2 b 0.25 0.75 0.8069(3) 0.64(3) 1. 0
Pb2 Pb2+ 2 a 0.25 0.25 0.2571(3) 0.70(3) 1. 0
Te1 Te2- 4 f 0.9558(3) 0.25 0.6656(3) 0.49(4) 1. 0
Pd1 Pd0+ 2 a 0.25 0.25 0.7826(4) 0.78(4) 1. 0
Pd2 Pd0+ 4 c 0 0 0 0.65(4) 1. 0
#End of TTdata_163134-ICSD