
#(C) 2017 by FIZ Karlsruhe - Leibniz Institute for Information Infrastructure.  All rights reserved.
data_163222-ICSD
_database_code_ICSD 163222
_audit_creation_date 2009-08-01
_audit_update_record 2011-02-01
_chemical_name_systematic 'Iron zinc (1/13)'
_chemical_formula_structural 'Fe Zn13'
_chemical_formula_sum 'Fe1 Zn13'
_chemical_name_structure_type CoZn13
_exptl_crystal_density_diffrn 7.3
_publ_section_title

;
Experimental determination and atomistic simulation on the structure of Fe
Zn13
;
loop_
_citation_id
_citation_journal_full
_citation_year
_citation_journal_volume
_citation_page_first
_citation_page_last
_citation_journal_id_ASTM
primary 'Journal of Phase Equilibria and Diffusion' 2008 29 488 492 JPEDAV
loop_
_publ_author_name
'Liu, Y.'
'Su, X.-P.'
'Yin, F.-C.'
'Li, Z.'
'Liu, Y.-H.'
_cell_length_a 13.4077(5)
_cell_length_b 7.6050(3)
_cell_length_c 5.0742(2)
_cell_angle_alpha 90.
_cell_angle_beta 127.206(1)
_cell_angle_gamma 90.
_cell_volume 412.09
_cell_formula_units_Z 2
_symmetry_space_group_name_H-M 'C 1 2/m 1'
_symmetry_Int_Tables_number 12
loop_
_symmetry_equiv_pos_site_id
_symmetry_equiv_pos_as_xyz
1 '-x, y, -z'
2 '-x, -y, -z'
3 'x, -y, z'
4 'x, y, z'
5 '-x+1/2, y+1/2, -z'
6 '-x+1/2, -y+1/2, -z'
7 'x+1/2, -y+1/2, z'
8 'x+1/2, y+1/2, z'
loop_
_atom_type_symbol
_atom_type_oxidation_number
Zn0+ 0
Fe0+ 0
Zn0+ 0
loop_
_atom_site_label
_atom_site_type_symbol
_atom_site_symmetry_multiplicity
_atom_site_Wyckoff_symbol
_atom_site_fract_x
_atom_site_fract_y
_atom_site_fract_z
_atom_site_B_iso_or_equiv
_atom_site_occupancy
_atom_site_attached_hydrogens
Zn1 Zn0+ 2 a 0 0 0 . 1. 0
Fe1 Fe0+ 2 c 0 0 0.5 . 1. 0
Zn2 Zn0+ 4 i 0.114 0.5 0.293 . 1. 0
Zn3 Zn0+ 4 i 0.219 0 0.072 . 1. 0
Zn4 Zn0+ 8 j 0.077 0.295 0.836 . 1. 0
Zn5 Zn0+ 8 j 0.176 0.179 0.546 . 1. 0
#End of TTdata_163222-ICSD