
#(C) 2017 by FIZ Karlsruhe - Leibniz Institute for Information Infrastructure.  All rights reserved.
data_16324-ICSD
_database_code_ICSD 16324
_audit_creation_date 1980-01-01
_audit_update_record 1987-04-16
_chemical_name_systematic 'Gold telluride chloride (1/2/1)'
_chemical_formula_structural 'Au Te2 Cl'
_chemical_formula_sum 'Au1 Cl1 Te2'
_chemical_name_structure_type NdBr3
_exptl_crystal_density_diffrn 7.74
_publ_section_title 'The Crystal Structures of Au Te2 Cl and Au Te2 I'
loop_
_citation_id
_citation_journal_full
_citation_year
_citation_journal_volume
_citation_page_first
_citation_page_last
_citation_journal_id_ASTM
primary 'Journal of Solid State Chemistry' 1974 10 175 181 JSSCBI
loop_
_publ_author_name
'Haendler, H.M.'
'Mootz, D.'
'Rabenau, A.'
'Rosenstein, G.'
_cell_length_a 4.02
_cell_length_b 11.867
_cell_length_c 8.773
_cell_angle_alpha 90.
_cell_angle_beta 90.
_cell_angle_gamma 90.
_cell_volume 418.52
_cell_formula_units_Z 4
_symmetry_space_group_name_H-M 'C m c m'
_symmetry_Int_Tables_number 63
_refine_ls_R_factor_all 0.021
loop_
_symmetry_equiv_pos_site_id
_symmetry_equiv_pos_as_xyz
1 '-x, y, -z+1/2'
2 '-x, -y, z+1/2'
3 '-x, y, z'
4 '-x, -y, -z'
5 'x, -y, z+1/2'
6 'x, y, -z+1/2'
7 'x, -y, -z'
8 'x, y, z'
9 '-x+1/2, y+1/2, -z+1/2'
10 '-x+1/2, -y+1/2, z+1/2'
11 '-x+1/2, y+1/2, z'
12 '-x+1/2, -y+1/2, -z'
13 'x+1/2, -y+1/2, z+1/2'
14 'x+1/2, y+1/2, -z+1/2'
15 'x+1/2, -y+1/2, -z'
16 'x+1/2, y+1/2, z'
loop_
_atom_type_symbol
_atom_type_oxidation_number
Au0+ 0
Te0+ 0
Cl0+ 0
loop_
_atom_site_label
_atom_site_type_symbol
_atom_site_symmetry_multiplicity
_atom_site_Wyckoff_symbol
_atom_site_fract_x
_atom_site_fract_y
_atom_site_fract_z
_atom_site_B_iso_or_equiv
_atom_site_occupancy
_atom_site_attached_hydrogens
Au1 Au0+ 4 c 0 0.08659(3) 0.25 . 1. 0
Te1 Te0+ 8 f 0.5 0.11077(3) 0.05161(4) . 1. 0
Cl1 Cl0+ 4 c 0 -.16090(18) 0.25 . 1. 0
loop_
_atom_site_aniso_label
_atom_site_aniso_type_symbol
_atom_site_aniso_U_11
_atom_site_aniso_U_22
_atom_site_aniso_U_33
_atom_site_aniso_U_12
_atom_site_aniso_U_13
_atom_site_aniso_U_23
Au1 Au0+ 0.0074(1) 0.0155(1) 0.0104(1) 0 0 0
Te1 Te0+ 0.0081(2) 0.0152(2) 0.0101(2) 0 0 0.0001(1)
Cl1 Cl0+ 0.0227(10) 0.0151(8) 0.0214(9) 0 0 0
#End of TTdata_16324-ICSD