
#(C) 2017 by FIZ Karlsruhe - Leibniz Institute for Information Infrastructure.  All rights reserved.
data_16361-ICSD
_database_code_ICSD 16361
_audit_creation_date 1981-12-31
_chemical_name_systematic 'Barium manganese bismuth oxide (2/2/2/1)'
_chemical_formula_structural 'Ba2 Mn2 Bi2 O'
_chemical_formula_sum 'Ba2 Bi2 Mn2 O1'
_chemical_name_structure_type Ba2Mn2Sb2O
_exptl_crystal_density_diffrn 6.77
_publ_section_title
'Ueber Oxidprictide: Zur Kenntnis von Ba2 Mn2 Sb2 O und Ba2 Mn2 Bi2 O'
loop_
_citation_id
_citation_journal_full
_citation_year
_citation_journal_volume
_citation_page_first
_citation_page_last
_citation_journal_id_ASTM
primary

;
Zeitschrift fuer Naturforschung, Teil B. Anorganische Chemie, Organische
Chemie (33,1978-41,1986)
; 1981 36 27 30 ZNBAD2
loop_
_publ_author_name
'Brechtel, E.'
'Cordier, G.'
'Schaefer, H.'
_cell_length_a 4.803(5)
_cell_length_b 4.803(5)
_cell_length_c 20.097(10)
_cell_angle_alpha 90.
_cell_angle_beta 90.
_cell_angle_gamma 120.
_cell_volume 401.5
_cell_formula_units_Z 2
_symmetry_space_group_name_H-M 'P 63/m m c'
_symmetry_Int_Tables_number 194
_refine_ls_R_factor_all 0.078
loop_
_symmetry_equiv_pos_site_id
_symmetry_equiv_pos_as_xyz
1 'x, x-y, -z+1/2'
2 '-x+y, y, -z+1/2'
3 '-y, -x, -z+1/2'
4 '-x+y, -x, -z+1/2'
5 '-y, x-y, -z+1/2'
6 'x, y, -z+1/2'
7 '-x, -x+y, z+1/2'
8 'x-y, -y, z+1/2'
9 'y, x, z+1/2'
10 'x-y, x, z+1/2'
11 'y, -x+y, z+1/2'
12 '-x, -y, z+1/2'
13 '-x, -x+y, -z'
14 'x-y, -y, -z'
15 'y, x, -z'
16 'x-y, x, -z'
17 'y, -x+y, -z'
18 '-x, -y, -z'
19 'x, x-y, z'
20 '-x+y, y, z'
21 '-y, -x, z'
22 '-x+y, -x, z'
23 '-y, x-y, z'
24 'x, y, z'
loop_
_atom_type_symbol
_atom_type_oxidation_number
Ba0+ 0
Mn0+ 0
Bi0+ 0
O0+ 0
loop_
_atom_site_label
_atom_site_type_symbol
_atom_site_symmetry_multiplicity
_atom_site_Wyckoff_symbol
_atom_site_fract_x
_atom_site_fract_y
_atom_site_fract_z
_atom_site_B_iso_or_equiv
_atom_site_occupancy
_atom_site_attached_hydrogens
Ba1 Ba0+ 2 b 0 0 0.25 . 1. 0
Ba2 Ba0+ 2 a 0 0 0 . 1. 0
Mn1 Mn0+ 4 f 0.3333 0.6667 0.6499(5) . 1. 0
Bi1 Bi0+ 4 f 0.3333 0.6667 0.3883(1) . 1. 0
O1 O0+ 2 d 0.3333 0.6667 0.75 0.04(2) 1. 0
loop_
_atom_site_aniso_label
_atom_site_aniso_type_symbol
_atom_site_aniso_U_11
_atom_site_aniso_U_22
_atom_site_aniso_U_33
_atom_site_aniso_U_12
_atom_site_aniso_U_13
_atom_site_aniso_U_23
Ba1 Ba0+ 0.010(2) 0.010(2) 0.010(2) 0.005(1) 0 0
Ba2 Ba0+ 0.013(2) 0.013(2) 0.0110(2) 0.0065(10) 0 0
Mn1 Mn0+ 0.018(3) 0.018(3) 0.013(4) 0.009(2) 0 0
Bi1 Bi0+ 0.009(1) 0.009(1) 0.013(1) 0.0045(4) 0 0
#End of TTdata_16361-ICSD