
#(C) 2017 by FIZ Karlsruhe - Leibniz Institute for Information Infrastructure.  All rights reserved.
data_16377-ICSD
_database_code_ICSD 16377
_audit_creation_date 1980-12-31
_audit_update_record 2000-07-15
_chemical_name_systematic 'Cobalt(III) niobate'
_chemical_formula_structural 'Co (Nb O4)'
_chemical_formula_sum 'Co1 Nb1 O4'
_chemical_name_structure_type VO2(HT)
_exptl_crystal_density_diffrn 5.08
_publ_section_title 'Einkristalle von Co Nb O4 mit Al Nb O4-Struktur'
loop_
_citation_id
_citation_journal_full
_citation_year
_citation_journal_volume
_citation_page_first
_citation_page_last
_citation_journal_id_ASTM
primary 'Zeitschrift fuer Anorganische und Allgemeine Chemie (1950) (DE)' 1980
471 85 88 ZAACAB
loop_
_publ_author_name
'Lehmann, U.'
'Mueller Buschbaum, H.'
_cell_length_a 12.129
_cell_length_b 3.749
_cell_length_c 6.512
_cell_angle_alpha 90.
_cell_angle_beta 107.6
_cell_angle_gamma 90.
_cell_volume 282.25
_cell_formula_units_Z 4
_symmetry_space_group_name_H-M 'C 1 2/m 1'
_symmetry_Int_Tables_number 12
_refine_ls_R_factor_all 0.095
loop_
_symmetry_equiv_pos_site_id
_symmetry_equiv_pos_as_xyz
1 '-x, y, -z'
2 '-x, -y, -z'
3 'x, -y, z'
4 'x, y, z'
5 '-x+1/2, y+1/2, -z'
6 '-x+1/2, -y+1/2, -z'
7 'x+1/2, -y+1/2, z'
8 'x+1/2, y+1/2, z'
loop_
_atom_type_symbol
_atom_type_oxidation_number
Co3+ 3
Nb5+ 5
O2- -2
loop_
_atom_site_label
_atom_site_type_symbol
_atom_site_symmetry_multiplicity
_atom_site_Wyckoff_symbol
_atom_site_fract_x
_atom_site_fract_y
_atom_site_fract_z
_atom_site_B_iso_or_equiv
_atom_site_occupancy
_atom_site_attached_hydrogens
Co1 Co3+ 4 i 0.1947 0 0.8002 1.61 1. 0
Nb1 Nb5+ 4 i 0.1026 0 0.2322 0.54 1. 0
O1 O2- 4 i 0.263 0 0.143 0.08 1. 0
O2 O2- 4 i 0.36 0 0.798 0.2 1. 0
O3 O2- 4 i 0.059 0 0.867 0.22 1. 0
O4 O2- 4 i 0.137 0 0.512 0.32 1. 0
#End of TTdata_16377-ICSD