
#(C) 2017 by FIZ Karlsruhe - Leibniz Institute for Information Infrastructure.  All rights reserved.
data_165189-ICSD
_database_code_ICSD 165189
_audit_creation_date 2010-02-01
_chemical_name_systematic 'Scandium gallium (5/3)'
_chemical_formula_structural 'Sc5 Ga3'
_chemical_formula_sum 'Ga3 Sc5'
_exptl_crystal_density_diffrn 4.28
_cell_measurement_temperature 293.
_publ_section_title

;
Formation of gallium dimers in the intermetallic compounds R5 Ga3 (R=  Sc, Y,
Ho, Er, Tm, Lu). Deformation of the Mn5Si3-type structure
;
loop_
_citation_id
_citation_journal_full
_citation_year
_citation_journal_volume
_citation_page_first
_citation_page_last
_citation_journal_id_ASTM
primary 'Inorganic Chemistry' 2001 40 1352 1357 INOCAJ
loop_
_publ_author_name
'Maggard, P.A.'
'Corbett, J.D.'
_cell_length_a 8.092(4)
_cell_length_b 14.015(6)
_cell_length_c 5.933(3)
_cell_angle_alpha 90.
_cell_angle_beta 91.022(9)
_cell_angle_gamma 90.
_cell_volume 672.75
_cell_formula_units_Z 4
_symmetry_space_group_name_H-M 'C 1 2/m 1'
_symmetry_Int_Tables_number 12
_refine_ls_R_factor_all 9.0637
loop_
_symmetry_equiv_pos_site_id
_symmetry_equiv_pos_as_xyz
1 '-x, y, -z'
2 '-x, -y, -z'
3 'x, -y, z'
4 'x, y, z'
5 '-x+1/2, y+1/2, -z'
6 '-x+1/2, -y+1/2, -z'
7 'x+1/2, -y+1/2, z'
8 'x+1/2, y+1/2, z'
loop_
_atom_type_symbol
_atom_type_oxidation_number
Ga0+ 0
Sc0+ 0
loop_
_atom_site_label
_atom_site_type_symbol
_atom_site_symmetry_multiplicity
_atom_site_Wyckoff_symbol
_atom_site_fract_x
_atom_site_fract_y
_atom_site_fract_z
_atom_site_B_iso_or_equiv
_atom_site_occupancy
_atom_site_attached_hydrogens
Ga1 Ga0+ 4 i 0.0971(3) 0 0.7094(4) 0.006(1) 1. 0
Ga2 Ga0+ 8 j 0.2000(2) 0.2998(1) 0.7717(3) 0.019(1) 1. 0
Sc1 Sc0+ 4 h 0 0.1777(3) 0.5 0.015(1) 1. 0
Sc2 Sc0+ 8 j 0.3785(3) 0.1205(2) 0.7551(4) 0.015(1) 1. 0
Sc3 Sc0+ 4 i 0.2628(5) 0 0.2570(6) 0.016(1) 1. 0
Sc4 Sc0+ 4 g 0 0.1551(3) 0 0.016(1) 1. 0
loop_
_atom_site_aniso_label
_atom_site_aniso_type_symbol
_atom_site_aniso_U_11
_atom_site_aniso_U_22
_atom_site_aniso_U_33
_atom_site_aniso_U_12
_atom_site_aniso_U_13
_atom_site_aniso_U_23
Ga1 Ga0+ 0.013(1) 0.009(1) 0.025(1) 0. 0.003(1) 0.
Ga2 Ga0+ 0.012(1) 0.010(1) 0.031(1) 0.000(1) 0.002(1) -0.002(1)
Sc1 Sc0+ 0.021(2) 0.010(2) 0.016(2) 0. 0.002(1) 0.
Sc2 Sc0+ 0.014(1) 0.010(1) 0.021(2) -0.002(1) 0.002(1) -0.001(1)
Sc3 Sc0+ 0.017(2) 0.008(2) 0.022(2) 0. 0.003(2) 0.
Sc4 Sc0+ 0.018(2) 0.016(2) 0.012(2) 0. -0.001(1) 0.
#End of TTdata_165189-ICSD