
#(C) 2017 by FIZ Karlsruhe - Leibniz Institute for Information Infrastructure.  All rights reserved.
data_165344-ICSD
_database_code_ICSD 165344
_audit_creation_date 2010-02-01
_chemical_name_systematic 'Cesium thallide (1/1)'
_chemical_formula_structural 'Cs Tl'
_chemical_formula_sum 'Cs1 Tl1'
_exptl_crystal_density_diffrn 5.98
_cell_measurement_temperature 293.
_publ_section_title

;
Cs Tl: a new example of tetragonally compressed (Tl6)(6-) octahedra.
Electronic effects and packing requirements in the diverse structures of A Tl
(A= Li, Na, K, Cs)
;
loop_
_citation_id
_citation_journal_full
_citation_year
_citation_journal_volume
_citation_page_first
_citation_page_last
_citation_journal_id_ASTM
primary 'Inorganic Chemistry' 1996 35 2301 2306 INOCAJ
loop_
_publ_author_name
'Dong Zhenchao'
'Corbett, J.D.'
_cell_length_a 32.140(3)
_cell_length_b 15.136(1)
_cell_length_c 9.2400(7)
_cell_angle_alpha 90.
_cell_angle_beta 90.
_cell_angle_gamma 90.
_cell_volume 4494.99
_cell_formula_units_Z 48
_symmetry_space_group_name_H-M 'F d d d Z'
_symmetry_Int_Tables_number 70
_refine_ls_R_factor_all 0.043
loop_
_symmetry_equiv_pos_site_id
_symmetry_equiv_pos_as_xyz
1 'x+3/4, y+3/4, -z'
2 'x+3/4, -y, z+3/4'
3 '-x, y+3/4, z+3/4'
4 '-x, -y, -z'
5 '-x+1/4, -y+1/4, z'
6 '-x+1/4, y, -z+1/4'
7 'x, -y+1/4, -z+1/4'
8 'x, y, z'
9 'x+3/4, y+1/4, -z+1/2'
10 'x+3/4, -y+1/2, z+1/4'
11 '-x, y+1/4, z+1/4'
12 '-x, -y+1/2, -z+1/2'
13 '-x+1/4, -y+3/4, z+1/2'
14 '-x+1/4, y+1/2, -z+3/4'
15 'x, -y+3/4, -z+3/4'
16 'x, y+1/2, z+1/2'
17 'x+1/4, y+3/4, -z+1/2'
18 'x+1/4, -y, z+1/4'
19 '-x+1/2, y+3/4, z+1/4'
20 '-x+1/2, -y, -z+1/2'
21 '-x+3/4, -y+1/4, z+1/2'
22 '-x+3/4, y, -z+3/4'
23 'x+1/2, -y+1/4, -z+3/4'
24 'x+1/2, y, z+1/2'
25 'x+1/4, y+1/4, -z'
26 'x+1/4, -y+1/2, z+3/4'
27 '-x+1/2, y+1/4, z+3/4'
28 '-x+1/2, -y+1/2, -z'
29 '-x+3/4, -y+3/4, z'
30 '-x+3/4, y+1/2, -z+1/4'
31 'x+1/2, -y+3/4, -z+1/4'
32 'x+1/2, y+1/2, z'
loop_
_atom_type_symbol
_atom_type_oxidation_number
Tl1- -1
Cs1+ 1
loop_
_atom_site_label
_atom_site_type_symbol
_atom_site_symmetry_multiplicity
_atom_site_Wyckoff_symbol
_atom_site_fract_x
_atom_site_fract_y
_atom_site_fract_z
_atom_site_B_iso_or_equiv
_atom_site_occupancy
_atom_site_attached_hydrogens
Tl1 Tl1- 32 h 0.32161(5) 0.8784(3) 0.0594(2) 2.56(7) 1. 0
Tl2 Tl1- 16 f 0.125 0.5014(2) 0.125 2.8(1) 1. 0
Cs1 Cs1+ 16 e 0.2743(1) 0.125 0.125 3.6(2) 1. 0
Cs2 Cs1+ 16 e 0.7844(1) 0.125 0.125 3.4(2) 1. 0
Cs3 Cs1+ 16 f 0.125 0.2539(3) 0.125 2.9(2) 1. 0
loop_
_atom_site_aniso_label
_atom_site_aniso_type_symbol
_atom_site_aniso_U_11
_atom_site_aniso_U_22
_atom_site_aniso_U_33
_atom_site_aniso_U_12
_atom_site_aniso_U_13
_atom_site_aniso_U_23
Tl1 Tl1- 0.0243(7) 0.047(1) 0.0257(7) 0.000(1) 0.0054(7) -0.005(1)
Tl2 Tl1- 0.046(2) 0.020(1) 0.041(2) 0. -0.011(6) 0.
Cs1 Cs1+ 0.044(3) 0.042(2) 0.048(2) 0. 0. 0.008(5)
Cs2 Cs1+ 0.032(2) 0.052(3) 0.047(2) 0. 0. 0.003(5)
Cs3 Cs1+ 0.050(3) 0.024(2) 0.036(2) 0. 0.01(1) 0.
#End of TTdata_165344-ICSD