
#(C) 2017 by FIZ Karlsruhe - Leibniz Institute for Information Infrastructure.  All rights reserved.
data_165564-ICSD
_database_code_ICSD 165564
_audit_creation_date 2010-02-01
_chemical_name_systematic 'Calcium magnesium (1/2)'
_chemical_formula_structural 'Ca Mg2'
_chemical_formula_sum 'Ca1 Mg2'
_chemical_name_structure_type Laves(2H)-MgZn2
_exptl_crystal_density_diffrn 1.71
_cell_measurement_temperature 293.
_publ_section_title 'Laves-phase structural changes in the system Ca Al2-x Mgx'
loop_
_citation_id
_citation_journal_full
_citation_year
_citation_journal_volume
_citation_page_first
_citation_page_last
_citation_journal_id_ASTM
primary 'Inorganic Chemistry' 2003 42 1467 1474 INOCAJ
loop_
_publ_author_name
'Amerioun, S.'
'Simak, S.I.'
'Haeussermann, U.'
_cell_length_a 6.2613(5)
_cell_length_b 6.2613(5)
_cell_length_c 10.1573(10)
_cell_angle_alpha 90.
_cell_angle_beta 90.
_cell_angle_gamma 120.
_cell_volume 344.86
_cell_formula_units_Z 4
_symmetry_space_group_name_H-M 'P 63/m m c'
_symmetry_Int_Tables_number 194
_refine_ls_R_factor_all 0.0109
loop_
_symmetry_equiv_pos_site_id
_symmetry_equiv_pos_as_xyz
1 'x, x-y, -z+1/2'
2 '-x+y, y, -z+1/2'
3 '-y, -x, -z+1/2'
4 '-x+y, -x, -z+1/2'
5 '-y, x-y, -z+1/2'
6 'x, y, -z+1/2'
7 '-x, -x+y, z+1/2'
8 'x-y, -y, z+1/2'
9 'y, x, z+1/2'
10 'x-y, x, z+1/2'
11 'y, -x+y, z+1/2'
12 '-x, -y, z+1/2'
13 '-x, -x+y, -z'
14 'x-y, -y, -z'
15 'y, x, -z'
16 'x-y, x, -z'
17 'y, -x+y, -z'
18 '-x, -y, -z'
19 'x, x-y, z'
20 '-x+y, y, z'
21 '-y, -x, z'
22 '-x+y, -x, z'
23 '-y, x-y, z'
24 'x, y, z'
loop_
_atom_type_symbol
_atom_type_oxidation_number
Ca0+ 0
Mg0+ 0
loop_
_atom_site_label
_atom_site_type_symbol
_atom_site_symmetry_multiplicity
_atom_site_Wyckoff_symbol
_atom_site_fract_x
_atom_site_fract_y
_atom_site_fract_z
_atom_site_B_iso_or_equiv
_atom_site_occupancy
_atom_site_attached_hydrogens
Ca1 Ca0+ 4 f 0.3333 0.6667 0.06190(3) 0.01512(11) 1 0
Mg1 Mg0+ 2 a 0. 0. 0. 0.01524(16) 1 0
Mg2 Mg0+ 6 h 0.83129(4) 0.66258(8) 0.25 0.01502(13) 1 0
loop_
_atom_site_aniso_label
_atom_site_aniso_type_symbol
_atom_site_aniso_U_11
_atom_site_aniso_U_22
_atom_site_aniso_U_33
_atom_site_aniso_U_12
_atom_site_aniso_U_13
_atom_site_aniso_U_23
Ca1 Ca0+ 0.01530(13) 0.01530(13) 0.01475(15) 0.00765(7) 0. 0.
Mg1 Mg0+ 0.0170(2) 0.0170(2) 0.0117(3) 0.00851(11) 0. 0.
Mg2 Mg0+ 0.0162(2) 0.0119(2) 0.01553(18) 0.00594(12) 0. 0.
#End of TTdata_165564-ICSD