
#(C) 2017 by FIZ Karlsruhe - Leibniz Institute for Information Infrastructure.  All rights reserved.
data_165789-ICSD
_database_code_ICSD 165789
_audit_creation_date 2010-08-01
_chemical_name_systematic 'Dilanthanum nitride trichloride'
_chemical_formula_structural 'La2 N Cl3'
_chemical_formula_sum 'Cl3 La2 N1'
_chemical_name_structure_type Pr2Cl3N
_exptl_crystal_density_diffrn 4.5
_publ_section_title

;
Chains of trans-edge connected (Z M4) tetrahedra (Z= N and O) in the
lanthanide nitride chlorides M2 N Cl3 and Na2 M4 O N Cl9 (M= La-Nd)
;
loop_
_citation_id
_citation_journal_full
_citation_year
_citation_journal_volume
_citation_page_first
_citation_page_last
_citation_journal_id_ASTM
primary 'Journal of Alloys and Compounds' 2009 485 110 118 JALCEU
loop_
_publ_author_name
'Schurz, C.M.'
'Schleid, T.'
_cell_length_a 13.7532(9)
_cell_length_b 6.9189(5)
_cell_length_c 6.1823(4)
_cell_angle_alpha 90.
_cell_angle_beta 90.
_cell_angle_gamma 90.
_cell_volume 588.29
_cell_formula_units_Z 4
_symmetry_space_group_name_H-M 'I b a m'
_symmetry_Int_Tables_number 72
_refine_ls_R_factor_all 0.024
loop_
_symmetry_equiv_pos_site_id
_symmetry_equiv_pos_as_xyz
1 '-x, y, z+1/2'
2 'x, -y, z+1/2'
3 'x, y, -z'
4 '-x, -y, -z'
5 'x, -y, -z+1/2'
6 '-x, y, -z+1/2'
7 '-x, -y, z'
8 'x, y, z'
9 '-x+1/2, y+1/2, z'
10 'x+1/2, -y+1/2, z'
11 'x+1/2, y+1/2, -z+1/2'
12 '-x+1/2, -y+1/2, -z+1/2'
13 'x+1/2, -y+1/2, -z'
14 '-x+1/2, y+1/2, -z'
15 '-x+1/2, -y+1/2, z+1/2'
16 'x+1/2, y+1/2, z+1/2'
loop_
_atom_type_symbol
_atom_type_oxidation_number
La3+ 3
N3- -3
Cl1- -1
loop_
_atom_site_label
_atom_site_type_symbol
_atom_site_symmetry_multiplicity
_atom_site_Wyckoff_symbol
_atom_site_fract_x
_atom_site_fract_y
_atom_site_fract_z
_atom_site_B_iso_or_equiv
_atom_site_occupancy
_atom_site_attached_hydrogens
La1 La3+ 8 j 0.09401(2) 0.17776(4) 0 0.0107(2) 1. 0
N1 N3- 4 a 0 0 0.25 0.0112(12) 1. 0
Cl1 Cl1- 4 b 0 0.5 0.25 0.0198(4) 1. 0
Cl2 Cl1- 8 j 0.30156(13) 0.3133(2) 0 0.0267(4) 1. 0
loop_
_atom_site_aniso_label
_atom_site_aniso_type_symbol
_atom_site_aniso_U_11
_atom_site_aniso_U_22
_atom_site_aniso_U_33
_atom_site_aniso_U_12
_atom_site_aniso_U_13
_atom_site_aniso_U_23
La1 La3+ 0.0086(3) 0.0089(3) 0.0145(3) -0.0020(1) 0. 0.
N1 N3- 0.0138(28) 0.0095(26) 0.0104(26) 0. 0. 0.
Cl1 Cl1- 0.0365(11) 0.0106(8) 0.0123(8) 0. 0. 0.
Cl2 Cl1- 0.0165(7) 0.0230(9) 0.0106(10) -0.0079(5) 0. 0.
#End of TTdata_165789-ICSD