
#(C) 2017 by FIZ Karlsruhe - Leibniz Institute for Information Infrastructure.  All rights reserved.
data_165990-ICSD
_database_code_ICSD 165990
_audit_creation_date 2010-08-01
_chemical_name_systematic 'Trisodium nitride - III'
_chemical_formula_structural 'Na3 N'
_chemical_formula_sum 'N1 Na3'
_exptl_crystal_density_diffrn 2.16
_cell_measurement_pressure 3900000.
_publ_section_title
'Structural phase transitions of sodium nitride at high pressure'
loop_
_citation_id
_citation_journal_full
_citation_year
_citation_journal_volume
_citation_page_first
_citation_page_last
_citation_journal_id_ASTM
primary 'Physical Review, Serie 3. B - Condensed Matter (18,1978-)' 2009 79
224107-1 224107-8 PRBMDO
loop_
_publ_author_name
'Vajenine, G.V.'
'Wang, X.'
'Efthimiopoulos, I.'
'Karmakar, S.'
'Syassen, K.'
'Hanfland, M.'
_cell_length_a 7.090(1)
_cell_length_b 7.518(1)
_cell_length_c 4.794(1)
_cell_angle_alpha 90.
_cell_angle_beta 90.
_cell_angle_gamma 90.
_cell_volume 255.53
_cell_formula_units_Z 4
_symmetry_space_group_name_H-M 'P n m a'
_symmetry_Int_Tables_number 62
loop_
_symmetry_equiv_pos_site_id
_symmetry_equiv_pos_as_xyz
1 'x+1/2, y, -z+1/2'
2 'x, -y+1/2, z'
3 '-x+1/2, y+1/2, z+1/2'
4 '-x, -y, -z'
5 '-x+1/2, -y, z+1/2'
6 '-x, y+1/2, -z'
7 'x+1/2, -y+1/2, -z+1/2'
8 'x, y, z'
loop_
_atom_type_symbol
_atom_type_oxidation_number
N3- -3
Na1+ 1
loop_
_atom_site_label
_atom_site_type_symbol
_atom_site_symmetry_multiplicity
_atom_site_Wyckoff_symbol
_atom_site_fract_x
_atom_site_fract_y
_atom_site_fract_z
_atom_site_B_iso_or_equiv
_atom_site_occupancy
_atom_site_attached_hydrogens
N1 N3- 4 c 0.376(2) 0.25 0.057(3) . 1. 0
Na1 Na1+ 4 c 0.026(1) 0.25 0.915(2) . 1. 0
Na2 Na1+ 8 d 0.162(1) 0.072(1) 0.384(1) . 1. 0
#End of TTdata_165990-ICSD