
#(C) 2017 by FIZ Karlsruhe - Leibniz Institute for Information Infrastructure.  All rights reserved.
data_165989-ICSD
_database_code_ICSD 165989
_audit_creation_date 2010-08-01
_chemical_name_systematic 'Trisodium nitride - II'
_chemical_formula_structural 'Na3 N'
_chemical_formula_sum 'N1 Na3'
_chemical_name_structure_type Li3N
_exptl_crystal_density_diffrn 1.75
_cell_measurement_pressure 1700000.
_publ_section_title
'Structural phase transitions of sodium nitride at high pressure'
loop_
_citation_id
_citation_journal_full
_citation_year
_citation_journal_volume
_citation_page_first
_citation_page_last
_citation_journal_id_ASTM
primary 'Physical Review, Serie 3. B - Condensed Matter (18,1978-)' 2009 79
224107-1 224107-8 PRBMDO
loop_
_publ_author_name
'Vajenine, G.V.'
'Wang, X.'
'Efthimiopoulos, I.'
'Karmakar, S.'
'Syassen, K.'
'Hanfland, M.'
_cell_length_a 4.4414(3)
_cell_length_b 4.4414(3)
_cell_length_c 4.6133(4)
_cell_angle_alpha 90.
_cell_angle_beta 90.
_cell_angle_gamma 120.
_cell_volume 78.81
_cell_formula_units_Z 1
_symmetry_space_group_name_H-M 'P 6/m m m'
_symmetry_Int_Tables_number 191
loop_
_symmetry_equiv_pos_site_id
_symmetry_equiv_pos_as_xyz
1 '-x, -x+y, -z'
2 'x-y, -y, -z'
3 'y, x, -z'
4 '-x+y, -x, -z'
5 '-y, x-y, -z'
6 'x, y, -z'
7 'x, x-y, -z'
8 '-x+y, y, -z'
9 '-y, -x, -z'
10 'x-y, x, -z'
11 'y, -x+y, -z'
12 '-x, -y, -z'
13 'x, x-y, z'
14 '-x+y, y, z'
15 '-y, -x, z'
16 'x-y, x, z'
17 'y, -x+y, z'
18 '-x, -y, z'
19 '-x, -x+y, z'
20 'x-y, -y, z'
21 'y, x, z'
22 '-x+y, -x, z'
23 '-y, x-y, z'
24 'x, y, z'
loop_
_atom_type_symbol
_atom_type_oxidation_number
N3- -3
Na1+ 1
loop_
_atom_site_label
_atom_site_type_symbol
_atom_site_symmetry_multiplicity
_atom_site_Wyckoff_symbol
_atom_site_fract_x
_atom_site_fract_y
_atom_site_fract_z
_atom_site_B_iso_or_equiv
_atom_site_occupancy
_atom_site_attached_hydrogens
N1 N3- 1 a 0 0 0 . 1. 0
Na1 Na1+ 1 b 0 0 0.5 . 1. 0
Na2 Na1+ 2 c 0.3333 0.6667 0 . 1. 0
#End of TTdata_165989-ICSD