
data_165992-ICSD
_database_code_ICSD 165992
_audit_creation_date 2010-08-01
_chemical_name_systematic 'Trisodium nitride - IV'
_chemical_formula_structural 'Na3 N'
_chemical_formula_sum 'N1 Na3'
_chemical_name_structure_type LaF3(P63mc)
_exptl_crystal_density_diffrn 2.69
_cell_measurement_pressure 16600000.
_cell_length_a 7.0356(4)
_cell_length_b 7.0356(4)
_cell_length_c 7.1661(6)
_cell_angle_alpha 90.
_cell_angle_beta 90.
_cell_angle_gamma 120.
_cell_volume 307.2
_cell_formula_units_Z 6
_symmetry_space_group_name_H-M 'P 63 c m'
_symmetry_Int_Tables_number 185
loop_
_symmetry_equiv_pos_site_id
_symmetry_equiv_pos_as_xyz
1 'x, x-y, z+1/2'
2 '-x+y, y, z+1/2'
3 '-y, -x, z+1/2'
4 'x-y, x, z+1/2'
5 'y, -x+y, z+1/2'
6 '-x, -y, z+1/2'
7 '-x, -x+y, z'
8 'x-y, -y, z'
9 'y, x, z'
10 '-x+y, -x, z'
11 '-y, x-y, z'
12 'x, y, z'
loop_
_atom_type_symbol
_atom_type_oxidation_number
N3- -3
Na1+ 1
loop_
_atom_site_label
_atom_site_type_symbol
_atom_site_symmetry_multiplicity
_atom_site_Wyckoff_symbol
_atom_site_fract_x
_atom_site_fract_y
_atom_site_fract_z
_atom_site_B_iso_or_equiv
_atom_site_occupancy
_atom_site_attached_hydrogens
N1 N3- 6 c 0.357(3) 0 0.250(3) . 1. 0
Na1 Na1+ 2 a 0 0 0.289(2) . 1. 0
Na2 Na1+ 4 b 0.3333 0.6667 0.228(2) . 1. 0
Na3 Na1+ 6 c 0.298(1) 0 0.571(1) . 1. 0
Na4 Na1+ 6 c 0.362(1) 0 0.912(1) . 1. 0
