
#(C) 2017 by FIZ Karlsruhe - Leibniz Institute for Information Infrastructure.  All rights reserved.
data_166218-ICSD
_database_code_ICSD 166218
_audit_creation_date 2010-08-01
_chemical_name_systematic 'Rubidium dihydrogenphosphate(V) - HT'
_chemical_formula_structural 'Rb (H2 P O4)'
_chemical_formula_sum 'H2 O4 P1 Rb1'
_chemical_name_structure_type CsH2PO4
_exptl_crystal_density_diffrn 2.81
_cell_measurement_temperature 423.
_publ_section_title
'High-temperature crystal structures and chemical modifications in Rb H2 P O4'
loop_
_citation_id
_citation_journal_full
_citation_year
_citation_journal_volume
_citation_page_first
_citation_page_last
_citation_journal_id_ASTM
primary 'Journal of Physics: Condensed Matter' 2009 21 325401-1 325401-7 JCOMEL
loop_
_publ_author_name
'Botez, C.E.'
'Martinez, H.'
'Tackett, R.J.'
'Chianelli, R.R.'
'Zhang Jian Zhong'
'Zhao Yu Sheng'
_cell_length_a 7.694
_cell_length_b 6.199
_cell_length_c 4.774
_cell_angle_alpha 90.
_cell_angle_beta 109.02
_cell_angle_gamma 90.
_cell_volume 215.27
_cell_formula_units_Z 2
_symmetry_space_group_name_H-M 'P 1 21/m 1'
_symmetry_Int_Tables_number 11
_refine_ls_R_factor_all 0.076
loop_
_symmetry_equiv_pos_site_id
_symmetry_equiv_pos_as_xyz
1 'x, -y+1/2, z'
2 '-x, -y, -z'
3 '-x, y+1/2, -z'
4 'x, y, z'
loop_
_atom_type_symbol
_atom_type_oxidation_number
Rb1+ 1
P5+ 5
O2- -2
H1+ 1
loop_
_atom_site_label
_atom_site_type_symbol
_atom_site_symmetry_multiplicity
_atom_site_Wyckoff_symbol
_atom_site_fract_x
_atom_site_fract_y
_atom_site_fract_z
_atom_site_B_iso_or_equiv
_atom_site_occupancy
_atom_site_attached_hydrogens
Rb1 Rb1+ 2 e 0.2623(6) 0.25 0.0604(8) 0.0377(23) 1. 0
P1 P5+ 2 e 0.2456(17) 0.75 0.5319(25) 0.0377(23) 1. 0
O1 O2- 2 e 0.4156(26) 0.75 0.4132(33) 0.0377(23) 1. 0
O2 O2- 2 e 0.3451(23) 0.75 0.8736(44) 0.0377(23) 1. 0
O3 O2- 4 f 0.1289(35) 0.5482(51) 0.4203(42) 0.0377(23) 1. 0
#End of TTdata_166218-ICSD