
data_167141-ICSD
_database_code_ICSD 167141
_audit_creation_date 2010-08-01
_chemical_name_systematic 'Lithium manganese silicide (2/1/1)'
_chemical_formula_structural 'Li2 Mg Si'
_chemical_formula_sum 'Li2 Mg1 Si1'
_chemical_name_structure_type Li8Al3Si5
_exptl_crystal_density_diffrn 1.69
_cell_length_a 6.387
_cell_length_b 6.387
_cell_length_c 6.387
_cell_angle_alpha 90.
_cell_angle_beta 90.
_cell_angle_gamma 90.
_cell_volume 260.55
_cell_formula_units_Z 4
_symmetry_space_group_name_H-M 'P -4 3 m'
_symmetry_Int_Tables_number 215
_refine_ls_R_factor_all 0.099
loop_
_symmetry_equiv_pos_site_id
_symmetry_equiv_pos_as_xyz
1 '-z, -y, x'
2 '-y, -x, z'
3 '-x, -z, y'
4 '-z, -x, y'
5 '-y, -z, x'
6 '-x, -y, z'
7 '-z, y, -x'
8 '-y, x, -z'
9 '-x, z, -y'
10 '-z, x, -y'
11 '-y, z, -x'
12 '-x, y, -z'
13 'z, -y, -x'
14 'y, -x, -z'
15 'x, -z, -y'
16 'z, -x, -y'
17 'y, -z, -x'
18 'x, -y, -z'
19 'z, y, x'
20 'y, x, z'
21 'x, z, y'
22 'z, x, y'
23 'y, z, x'
24 'x, y, z'
loop_
_atom_type_symbol
_atom_type_oxidation_number
Li1+ 1
Mg2+ 2
Si4- -4
loop_
_atom_site_label
_atom_site_type_symbol
_atom_site_symmetry_multiplicity
_atom_site_Wyckoff_symbol
_atom_site_fract_x
_atom_site_fract_y
_atom_site_fract_z
_atom_site_B_iso_or_equiv
_atom_site_occupancy
_atom_site_attached_hydrogens
Li1 Li1+ 1 b 0.5 0.5 0.5 . 1. 0
Li2 Li1+ 3 c 0 0.5 0.5 . 1. 0
Li3 Li1+ 4 e 0.68 0.68 0.68 . 1. 0
Mg1 Mg2+ 1 a 0 0 0 . 1. 0
Mg2 Mg2+ 3 d 0.5 0 0 . 1. 0
Si1 Si4- 4 e 0.252 0.252 0.252 . 1. 0
