
data_167332-ICSD
_database_code_ICSD 167332
_audit_creation_date 2011-02-01
_chemical_name_systematic 'Disilver metagermanate'
_chemical_formula_structural 'Ag2 (Ge O3)'
_chemical_formula_sum 'Ag2 Ge1 O3'
_chemical_name_structure_type Ag2SiO3
_exptl_crystal_density_diffrn 6.49
_cell_length_a 4.6309(1)
_cell_length_b 7.1393(2)
_cell_length_c 10.4079(3)
_cell_angle_alpha 90.
_cell_angle_beta 90.
_cell_angle_gamma 90.
_cell_volume 344.1
_cell_formula_units_Z 4
_symmetry_space_group_name_H-M 'P 21 21 21'
_symmetry_Int_Tables_number 19
_refine_ls_R_factor_all 0.0067
loop_
_symmetry_equiv_pos_site_id
_symmetry_equiv_pos_as_xyz
1 '-x, y+1/2, -z+1/2'
2 'x+1/2, -y+1/2, -z'
3 '-x+1/2, -y, z+1/2'
4 'x, y, z'
loop_
_atom_type_symbol
_atom_type_oxidation_number
Ag1+ 1
Ge4+ 4
O2- -2
loop_
_atom_site_label
_atom_site_type_symbol
_atom_site_symmetry_multiplicity
_atom_site_Wyckoff_symbol
_atom_site_fract_x
_atom_site_fract_y
_atom_site_fract_z
_atom_site_B_iso_or_equiv
_atom_site_occupancy
_atom_site_attached_hydrogens
Ag1 Ag1+ 4 a 0.0734(3) 0.6293(2) 0.1178(1) 1.30(5) 1. 0
Ag2 Ag1+ 4 a 0.4800(3) 0.3971(2) 0.2741(1) 1.34(5) 1. 0
Ge1 Ge4+ 4 a 0.0311(4) 0.1344(3) 0.0629(2) 0.71(6) 1. 0
O1 O2- 4 a 0.124(2) 0.406(1) 0.4534(9) 0.7(1) 1. 0
O2 O2- 4 a 0.208(2) 0.136(1) 0.2173(9) 0.7(1) 1. 0
O3 O2- 4 a 0.786(2) 0.320(2) 0.052(1) 0.7 1. 0
