
#(C) 2017 by FIZ Karlsruhe - Leibniz Institute for Information Infrastructure.  All rights reserved.
data_167748-ICSD
_database_code_ICSD 167748
_audit_creation_date 2011-02-01
_audit_update_record 2013-08-01
_chemical_name_systematic 'Iridium(III) pentaammine chloride dinitrate'
_chemical_formula_structural '(Ir (N H3)5 Cl) (N O3)2'
_chemical_formula_sum 'H15 Cl1 Ir1 N7 O6'
_chemical_name_structure_type Ir(NH3)5Cl(NO3)2
_exptl_crystal_density_diffrn 2.42
_cell_measurement_temperature 293.
_publ_section_title
'Crystal structure and properties of (M (N H3)5 Cl) (N O3)2 (M = Ir, Rh, Ru)'
loop_
_citation_id
_citation_journal_full
_citation_year
_citation_journal_volume
_citation_page_first
_citation_page_last
_citation_journal_id_ASTM
primary 'Zhurnal Strukturnoi Khimii (Issue-No. from 1981)' 2009 50 502 507
ZSTKAI
loop_
_publ_author_name
'Plyusnin, P.E.'
'Semitut, E.yu.'
'Baidina, I.A.'
'Sheludyakova, L.A.'
'Korenev, S.V.'
_cell_length_a 7.6061(1)
_cell_length_b 7.6061(1)
_cell_length_c 10.4039(2)
_cell_angle_alpha 90.
_cell_angle_beta 90.
_cell_angle_gamma 90.
_cell_volume 601.89
_cell_formula_units_Z 2
_symmetry_space_group_name_H-M 'I 4'
_symmetry_Int_Tables_number 79
_refine_ls_R_factor_all 0.0087
loop_
_symmetry_equiv_pos_site_id
_symmetry_equiv_pos_as_xyz
1 'y, -x, z'
2 '-y, x, z'
3 '-x, -y, z'
4 'x, y, z'
5 'y+1/2, -x+1/2, z+1/2'
6 '-y+1/2, x+1/2, z+1/2'
7 '-x+1/2, -y+1/2, z+1/2'
8 'x+1/2, y+1/2, z+1/2'
loop_
_atom_type_symbol
_atom_type_oxidation_number
Ir3+ 3
Cl1- -1
N3- -3
N5+ 5
N3- -3
O2- -2
H1+ 1
loop_
_atom_site_label
_atom_site_type_symbol
_atom_site_symmetry_multiplicity
_atom_site_Wyckoff_symbol
_atom_site_fract_x
_atom_site_fract_y
_atom_site_fract_z
_atom_site_B_iso_or_equiv
_atom_site_occupancy
_atom_site_attached_hydrogens
Ir1 Ir3+ 2 a 0 0 -0.1343 0.03434(6) 1. 0
Cl1 Cl1- 2 a 0 0 0.0931(2) 0.0621(6) 1. 0
N1 N3- 2 a 0 0 -0.3316(7) 0.0468(17) 1. 0
N2 N5+ 4 b 0 0.5 -0.3853(8) 0.0402(4) 1. 0
N3 N3- 8 c 0.1938(2) 0.1934(2) -0.1328(6) 0.0445(3) 1. 0
O1 O2- 4 b 0 0.5 -0.2659(3) 0.0568(7) 1. 0
O2 O2- 8 c -0.1(7) -0.3590(3) -0.4456(2) 0.0624(5) 1. 0
#End of TTdata_167748-ICSD