
#(C) 2017 by FIZ Karlsruhe - Leibniz Institute for Information Infrastructure.  All rights reserved.
data_16828-ICSD
_database_code_ICSD 16828
_audit_creation_date 1986-09-26
_chemical_name_systematic 'Potassium hydroxide hydrate'
_chemical_formula_structural 'K O H H2 O'
_chemical_formula_sum 'H3 K1 O2'
_exptl_crystal_density_diffrn 1.96
_publ_section_title 'Structure cristalline de la potasse monohydratee'
loop_
_citation_id
_citation_journal_full
_citation_year
_citation_journal_volume
_citation_page_first
_citation_page_last
_citation_journal_id_ASTM
primary 'Cahiers de Physique' 1956 74 24 25 CAPHAI
loop_
_publ_author_name
'Clastre, J.'
_cell_length_a 5.8
_cell_length_b 5.83
_cell_length_c 7.88
_cell_angle_alpha 90.
_cell_angle_beta 109.83
_cell_angle_gamma 90.
_cell_volume 250.65
_cell_formula_units_Z 4
_symmetry_space_group_name_H-M 'P 1 21/c 1'
_symmetry_Int_Tables_number 14
_refine_ls_R_factor_all 0.055
loop_
_symmetry_equiv_pos_site_id
_symmetry_equiv_pos_as_xyz
1 'x, -y+1/2, z+1/2'
2 '-x, -y, -z'
3 '-x, y+1/2, -z+1/2'
4 'x, y, z'
loop_
_atom_type_symbol
_atom_type_oxidation_number
K1+ 1
O2- -2
H1+ 1
loop_
_atom_site_label
_atom_site_type_symbol
_atom_site_symmetry_multiplicity
_atom_site_Wyckoff_symbol
_atom_site_fract_x
_atom_site_fract_y
_atom_site_fract_z
_atom_site_B_iso_or_equiv
_atom_site_occupancy
_atom_site_attached_hydrogens
K1 K1+ 4 e 0.298 0.25 0.0745 2.05 1. 0
O1 O2- 4 e 0.34 0.727 0.085 1.45 1. 0
O2 O2- 4 e 0.943 0.135 0.2357 2.35 1. 0
#End of TTdata_16828-ICSD