
#(C) 2017 by FIZ Karlsruhe - Leibniz Institute for Information Infrastructure.  All rights reserved.
data_16822-ICSD
_database_code_ICSD 16822
_audit_creation_date 1980-01-01
_audit_update_record 2013-02-01
_chemical_name_systematic 'Molybdenum germanium (1/2)'
_chemical_formula_structural 'Mo Ge2'
_chemical_formula_sum 'Ge2 Mo1'
_chemical_name_structure_type Co2Si
_exptl_crystal_density_diffrn 8.53
_publ_section_title
'Structure data for some arsenic- and germanium-rich compounds of molybdenum'
loop_
_citation_id
_citation_journal_full
_citation_year
_citation_journal_volume
_citation_page_first
_citation_page_last
_citation_journal_id_ASTM
primary 'Nature (London)' 1965 206 502 503 NATUAS
loop_
_publ_author_name
'Brown, A.'
_cell_length_a 6.343(2)
_cell_length_b 3.451(1)
_cell_length_c 8.582(2)
_cell_angle_alpha 90.
_cell_angle_beta 90.
_cell_angle_gamma 90.
_cell_volume 187.86
_cell_formula_units_Z 4
_symmetry_space_group_name_H-M 'P n m a'
_symmetry_Int_Tables_number 62
loop_
_symmetry_equiv_pos_site_id
_symmetry_equiv_pos_as_xyz
1 'x+1/2, y, -z+1/2'
2 'x, -y+1/2, z'
3 '-x+1/2, y+1/2, z+1/2'
4 '-x, -y, -z'
5 '-x+1/2, -y, z+1/2'
6 '-x, y+1/2, -z'
7 'x+1/2, -y+1/2, -z+1/2'
8 'x, y, z'
loop_
_atom_type_symbol
_atom_type_oxidation_number
Mo0+ 0
Ge0+ 0
loop_
_atom_site_label
_atom_site_type_symbol
_atom_site_symmetry_multiplicity
_atom_site_Wyckoff_symbol
_atom_site_fract_x
_atom_site_fract_y
_atom_site_fract_z
_atom_site_B_iso_or_equiv
_atom_site_occupancy
_atom_site_attached_hydrogens
Mo1 Mo0+ 4 c 0.2498(3) 0.25 0.1716(2) 0.5 1. 0
Ge1 Ge0+ 4 c 0.8650(3) 0.25 0.0407(3) 0.63 1. 0
Ge2 Ge0+ 4 c 0.9369(4) 0.25 0.6319(3) 0.74 1. 0
#End of TTdata_16822-ICSD