
#(C) 2017 by FIZ Karlsruhe - Leibniz Institute for Information Infrastructure.  All rights reserved.
data_16895-ICSD
_database_code_ICSD 16895
_audit_creation_date 1980-01-01
_audit_update_record 2012-08-01
_chemical_name_systematic 'Cobalt carbide (2/1)'
_chemical_formula_structural 'Co2 C'
_chemical_formula_sum 'C1 Co2'
_chemical_name_structure_type Fe2C
_exptl_crystal_density_diffrn 7.66
_publ_section_title

;
The preparation and the crystal structures of cobalt nitride, Co2 N, of cobalt
carbonitrides, Co2 (C, N) and of cobalt carbide, Co2 C
;
loop_
_citation_id
_citation_journal_full
_citation_year
_citation_journal_volume
_citation_page_first
_citation_page_last
_citation_journal_id_ASTM
primary 'Chemistry and Industry (London)' 1951 1951 1004 1005 CHINAG
loop_
_publ_author_name
'Clarke, J.'
'Jack, K.H.'
_cell_length_a 2.8969(5)
_cell_length_b 4.4465(10)
_cell_length_c 4.3707(10)
_cell_angle_alpha 90.
_cell_angle_beta 90.
_cell_angle_gamma 90.
_cell_volume 56.3
_cell_formula_units_Z 2
_symmetry_space_group_name_H-M 'P m n n'
_symmetry_Int_Tables_number 58
loop_
_symmetry_equiv_pos_site_id
_symmetry_equiv_pos_as_xyz
1 'x+1/2, -y+1/2, z+1/2'
2 'x+1/2, y+1/2, -z+1/2'
3 '-x, y, z'
4 '-x, -y, -z'
5 '-x+1/2, y+1/2, -z+1/2'
6 '-x+1/2, -y+1/2, z+1/2'
7 'x, -y, -z'
8 'x, y, z'
loop_
_atom_type_symbol
_atom_type_oxidation_number
Co2+ 2
C4- -4
loop_
_atom_site_label
_atom_site_type_symbol
_atom_site_symmetry_multiplicity
_atom_site_Wyckoff_symbol
_atom_site_fract_x
_atom_site_fract_y
_atom_site_fract_z
_atom_site_B_iso_or_equiv
_atom_site_occupancy
_atom_site_attached_hydrogens
Co1 Co2+ 4 g 0 0.347(1) 0.258(2) . 1. 0
C1 C4- 2 a 0 0 0 . 1. 0
#End of TTdata_16895-ICSD