
#(C) 2017 by FIZ Karlsruhe - Leibniz Institute for Information Infrastructure.  All rights reserved.
data_16919-ICSD
_database_code_ICSD 16919
_audit_creation_date 1980-01-01
_audit_update_record 2014-02-01
_chemical_name_systematic 'Trisodium argentate'
_chemical_formula_structural 'Na3 (Ag O2)'
_chemical_formula_sum 'Ag1 Na3 O2'
_chemical_name_structure_type Na3AgO2
_exptl_crystal_density_diffrn 3.94
_publ_section_title 'Ueber Oxoargentate(I): Na3 Ag O2'
loop_
_citation_id
_citation_journal_full
_citation_year
_citation_journal_volume
_citation_page_first
_citation_page_last
_citation_journal_id_ASTM
primary Naturwissenschaften 1969 56 414 414 NATWAY
loop_
_publ_author_name
'Schenk, F.'
'Hoppe, R.'
_cell_length_a 5.46
_cell_length_b 10.9
_cell_length_c 5.92
_cell_angle_alpha 90.
_cell_angle_beta 90.
_cell_angle_gamma 90.
_cell_volume 352.32
_cell_formula_units_Z 4
_symmetry_space_group_name_H-M 'I b a m'
_symmetry_Int_Tables_number 72
_refine_ls_R_factor_all 0.055
loop_
_symmetry_equiv_pos_site_id
_symmetry_equiv_pos_as_xyz
1 '-x, y, z+1/2'
2 'x, -y, z+1/2'
3 'x, y, -z'
4 '-x, -y, -z'
5 'x, -y, -z+1/2'
6 '-x, y, -z+1/2'
7 '-x, -y, z'
8 'x, y, z'
9 '-x+1/2, y+1/2, z'
10 'x+1/2, -y+1/2, z'
11 'x+1/2, y+1/2, -z+1/2'
12 '-x+1/2, -y+1/2, -z+1/2'
13 'x+1/2, -y+1/2, -z'
14 '-x+1/2, y+1/2, -z'
15 '-x+1/2, -y+1/2, z+1/2'
16 'x+1/2, y+1/2, z+1/2'
loop_
_atom_type_symbol
_atom_type_oxidation_number
Ag1+ 1
Na1+ 1
O2- -2
loop_
_atom_site_label
_atom_site_type_symbol
_atom_site_symmetry_multiplicity
_atom_site_Wyckoff_symbol
_atom_site_fract_x
_atom_site_fract_y
_atom_site_fract_z
_atom_site_B_iso_or_equiv
_atom_site_occupancy
_atom_site_attached_hydrogens
Ag1 Ag1+ 4 c 0 0 0 . 1. 0
Na1 Na1+ 8 g 0 0.24 0.25 . 1. 0
Na2 Na1+ 4 b 0.5 0 0.25 . 1. 0
O1 O2- 8 j 0.27 0.135 0 . 1. 0
#End of TTdata_16919-ICSD