
#(C) 2017 by FIZ Karlsruhe - Leibniz Institute for Information Infrastructure.  All rights reserved.
data_16957-ICSD
_database_code_ICSD 16957
_audit_creation_date 1980-01-01
_audit_update_record 2011-08-01
_chemical_name_systematic 'Dicadmium trimanganese(IV) oxide'
_chemical_formula_structural 'Cd2 Mn3 O8'
_chemical_formula_sum 'Cd2 Mn3 O8'
_chemical_name_structure_type Cd2Mn3O8
_exptl_crystal_density_diffrn 5.89
_publ_section_title 'Die Kristallstrukturen von Mn5 O8 und Cd2 Mn3 O8'
loop_
_citation_id
_citation_journal_full
_citation_year
_citation_journal_volume
_citation_page_first
_citation_page_last
_citation_journal_id_ASTM
primary 'Helvetica Chimica Acta' 1967 50 2023 2034 HCACAV
loop_
_publ_author_name
'Oswald, H.R.'
'Wampetich, M.J.'
_cell_length_a 10.806
_cell_length_b 5.808
_cell_length_c 4.932
_cell_angle_alpha 90.
_cell_angle_beta 109.51
_cell_angle_gamma 90.
_cell_volume 291.77
_cell_formula_units_Z 2
_symmetry_space_group_name_H-M 'C 1 2/m 1'
_symmetry_Int_Tables_number 12
_refine_ls_R_factor_all 0.056
loop_
_symmetry_equiv_pos_site_id
_symmetry_equiv_pos_as_xyz
1 '-x, y, -z'
2 '-x, -y, -z'
3 'x, -y, z'
4 'x, y, z'
5 '-x+1/2, y+1/2, -z'
6 '-x+1/2, -y+1/2, -z'
7 'x+1/2, -y+1/2, z'
8 'x+1/2, y+1/2, z'
loop_
_atom_type_symbol
_atom_type_oxidation_number
Mn4+ 4
Cd2+ 2
O2- -2
loop_
_atom_site_label
_atom_site_type_symbol
_atom_site_symmetry_multiplicity
_atom_site_Wyckoff_symbol
_atom_site_fract_x
_atom_site_fract_y
_atom_site_fract_z
_atom_site_B_iso_or_equiv
_atom_site_occupancy
_atom_site_attached_hydrogens
Mn1 Mn4+ 2 c 0 0 0.5 1.5 1. 0
Mn2 Mn4+ 4 g 0 0.261 0 1.5 1. 0
Cd1 Cd2+ 4 i 0.7202 0 0.657 0.8 1. 0
O1 O2- 8 j 0.091 0.233 0.39 2. 1. 0
O2 O2- 4 i 0.082 0 0.899 2. 1. 0
O3 O2- 4 i 0.601 0 0.934 2. 1. 0
#End of TTdata_16957-ICSD