
#(C) 2017 by FIZ Karlsruhe - Leibniz Institute for Information Infrastructure.  All rights reserved.
data_169667-ICSD
_database_code_ICSD 169667
_audit_creation_date 2011-08-01
_chemical_name_systematic 'Mercury tungstate - RT, NP'
_chemical_formula_structural 'Hg (W O4)'
_chemical_formula_sum 'Hg1 O4 W1'
_chemical_name_structure_type HgMoO4
_exptl_crystal_density_diffrn 9.19
_cell_measurement_temperature 293.
_publ_section_title
'High-pressure structural and lattice dynamical study of Hg W O4'
loop_
_citation_id
_citation_journal_full
_citation_year
_citation_journal_volume
_citation_page_first
_citation_page_last
_citation_journal_id_ASTM
primary 'Physical Review, Serie 3. B - Condensed Matter (18,1978-)' 2010 82
035212-1 035212-12 PRBMDO
loop_
_publ_author_name
'Manjon, F.J.'
'Lopez-Solano, J.'
'Ray, S.'
'Gomis, O.'
'Santamaria-Perez, D.'
'Mollar, M.'
'Panchal, V.'
'Errandonea, D.'
'Rodriguez-Hernandez, P.'
'Munoz, A.'
_cell_length_a 11.3660(6)
_cell_length_b 6.0211(3)
_cell_length_c 5.1481(2)
_cell_angle_alpha 90.
_cell_angle_beta 113.111(1)
_cell_angle_gamma 90.
_cell_volume 324.04
_cell_formula_units_Z 4
_symmetry_space_group_name_H-M 'C 1 2/c 1'
_symmetry_Int_Tables_number 15
_refine_ls_R_factor_all 0.014
loop_
_symmetry_equiv_pos_site_id
_symmetry_equiv_pos_as_xyz
1 'x, -y, z+1/2'
2 '-x, -y, -z'
3 '-x, y, -z+1/2'
4 'x, y, z'
5 'x+1/2, -y+1/2, z+1/2'
6 '-x+1/2, -y+1/2, -z'
7 '-x+1/2, y+1/2, -z+1/2'
8 'x+1/2, y+1/2, z'
loop_
_atom_type_symbol
_atom_type_oxidation_number
Hg2+ 2
W6+ 6
O2- -2
loop_
_atom_site_label
_atom_site_type_symbol
_atom_site_symmetry_multiplicity
_atom_site_Wyckoff_symbol
_atom_site_fract_x
_atom_site_fract_y
_atom_site_fract_z
_atom_site_B_iso_or_equiv
_atom_site_occupancy
_atom_site_attached_hydrogens
Hg1 Hg2+ 4 c 0.25 0.25 0 . 1. 0
W1 W6+ 4 e 0 0.1887(3) 0.25 . 1. 0
O1 O2- 8 f 0.0952(1) 0.071(2) 0.038(2) . 1. 0
O2 O2- 8 f 0.1058(1) 0.3866(2) 0.466(2) . 1. 0
#End of TTdata_169667-ICSD