
#(C) 2017 by FIZ Karlsruhe - Leibniz Institute for Information Infrastructure.  All rights reserved.
data_169941-ICSD
_database_code_ICSD 169941
_audit_creation_date 2011-08-01
_chemical_name_systematic 'Tin tetraantimony heptasulfide'
_chemical_formula_structural 'Sn Sb4 S7'
_chemical_formula_sum 'S7 Sb4 Sn1'
_chemical_name_mineral Unnamed_Meneghinite
_exptl_crystal_density_diffrn 4.68
_publ_section_title

;
The crystal structure of Sn Sb4 S7, a new member of the meneghinite homologous
series
;
loop_
_citation_id
_citation_journal_full
_citation_year
_citation_journal_volume
_citation_page_first
_citation_page_last
_citation_journal_id_ASTM
primary 'Canadian Mineralogist' 2010 48 1119 1126 CAMIA6
loop_
_publ_author_name
'Topa, D.'
'Makovicky, E.'
'Schimper, H.J.'
'Stadler, A.'
'Basch, A.'
'Dittrich, H.'
'Amthauer, G.'
_cell_length_a 11.331(4)
_cell_length_b 3.865(2)
_cell_length_c 13.940(5)
_cell_angle_alpha 90.
_cell_angle_beta 105.281(6)
_cell_angle_gamma 90.
_cell_volume 588.91
_cell_formula_units_Z 2
_symmetry_space_group_name_H-M 'P 1 21/m 1'
_symmetry_Int_Tables_number 11
_refine_ls_R_factor_all 0.0518
loop_
_symmetry_equiv_pos_site_id
_symmetry_equiv_pos_as_xyz
1 'x, -y+1/2, z'
2 '-x, -y, -z'
3 '-x, y+1/2, -z'
4 'x, y, z'
loop_
_atom_type_symbol
_atom_type_oxidation_number
Sn2+ 2
Sb3+ 3
S2- -2
loop_
_atom_site_label
_atom_site_type_symbol
_atom_site_symmetry_multiplicity
_atom_site_Wyckoff_symbol
_atom_site_fract_x
_atom_site_fract_y
_atom_site_fract_z
_atom_site_B_iso_or_equiv
_atom_site_occupancy
_atom_site_attached_hydrogens
Sn1 Sn2+ 2 e 0.3791(1) 0.25 0.2141(1) 0.0306(5) 1. 0
Sb1 Sb3+ 2 e 0.6695(1) 0.25 0.4753(1) 0.0173(4) 1. 0
Sb2 Sb3+ 2 e 0.9477(1) 0.25 0.8864(1) 0.0171(4) 1. 0
Sb3 Sb3+ 2 e 0.6608(1) 0.25 0.0500(1) 0.0315(5) 1. 0
Sb4 Sb3+ 2 e 0.0768(1) 0.25 0.6260(1) 0.0220(4) 1. 0
S1 S2- 2 e 0.7524(3) 0.25 0.3251(3) 0.0153(8) 1. 0
S2 S2- 2 e 0.9573(4) 0.25 0.1838(3) 0.0221(9) 1. 0
S3 S2- 2 e 0.1079(3) 0.25 0.4583(3) 0.0145(8) 1. 0
S4 S2- 2 e 0.7646(4) 0.25 0.7418(3) 0.0199(9) 1. 0
S5 S2- 2 e 0.4696(3) 0.25 0.6040(3) 0.0151(8) 1. 0
S6 S2- 2 e 0.4934(4) 0.25 0.8896(3) 0.0207(9) 1. 0
S7 S2- 2 e 0.2327(3) 0.25 0.0371(3) 0.0161(9) 1. 0
loop_
_atom_site_aniso_label
_atom_site_aniso_type_symbol
_atom_site_aniso_U_11
_atom_site_aniso_U_22
_atom_site_aniso_U_33
_atom_site_aniso_U_12
_atom_site_aniso_U_13
_atom_site_aniso_U_23
Sn1 Sn2+ 0.0454(8) 0.0212(7) 0.0257(8) 0. 0.0100(5) 0.
Sb1 Sb3+ 0.0208(6) 0.0114(6) 0.0195(6) 0. 0.0049(4) 0.
Sb2 Sb3+ 0.0221(6) 0.0111(6) 0.0204(6) 0. 0.0095(4) 0.
Sb3 Sb3+ 0.0400(8) 0.0173(7) 0.0368(8) 0. 0.0096(6) 0.
Sb4 Sb3+ 0.0298(7) 0.0191(6) 0.0199(7) 0. 0.0116(4) 0.
S1 S2- 0.015(2) 0.017(2) 0.014(2) 0. 0.005(1) 0.
S2 S2- 0.027(2) 0.020(2) 0.022(2) 0. 0.011(2) 0.
S3 S2- 0.018(2) 0.014(2) 0.015(2) 0. 0.009(1) 0.
S4 S2- 0.02(2) 0.018(2) 0.020(2) 0. 0.006(2) 0.
S5 S2- 0.014(2) 0.011(2) 0.021(2) 0. 0.006(1) 0.
S6 S2- 0.022(2) 0.019(2) 0.021(2) 0. 0.006(1) 0.
S7 S2- 0.015(2) 0.015(2) 0.018(2) 0. 0.005(1) 0.
#End of TTdata_169941-ICSD