
#(C) 2017 by FIZ Karlsruhe - Leibniz Institute for Information Infrastructure.  All rights reserved.
data_170063-ICSD
_database_code_ICSD 170063
_audit_creation_date 2005-10-01
_audit_update_record 2008-02-01
_chemical_name_systematic 'Scandium lead (6/5)'
_chemical_formula_structural 'Sc6 Pb5'
_chemical_formula_sum 'Pb5 Sc6'
_exptl_crystal_density_diffrn 8.2
_publ_section_title 'Two new scandium phases: Sc Sn2 and Sc6 Pb5'
loop_
_citation_id
_citation_journal_full
_citation_year
_citation_journal_volume
_citation_page_first
_citation_page_last
_citation_journal_id_ASTM
primary 'Acta Crystallographica, Section C: Crystal Structure Communications'
1995 51 1725 1728 ACSCEE
loop_
_publ_author_name
'Pani, M.'
'Manfrinetti, P.'
'Fornasini, M.L.'
_cell_length_a 8.8890(10)
_cell_length_b 19.274(2)
_cell_length_c 6.177(2)
_cell_angle_alpha 90.
_cell_angle_beta 90.
_cell_angle_gamma 90.
_cell_volume 1058.28
_cell_formula_units_Z 4
_symmetry_space_group_name_H-M 'I b a m'
_symmetry_Int_Tables_number 72
_refine_ls_R_factor_all 0.08
loop_
_symmetry_equiv_pos_site_id
_symmetry_equiv_pos_as_xyz
1 '-x, y, z+1/2'
2 'x, -y, z+1/2'
3 'x, y, -z'
4 '-x, -y, -z'
5 'x, -y, -z+1/2'
6 '-x, y, -z+1/2'
7 '-x, -y, z'
8 'x, y, z'
9 '-x+1/2, y+1/2, z'
10 'x+1/2, -y+1/2, z'
11 'x+1/2, y+1/2, -z+1/2'
12 '-x+1/2, -y+1/2, -z+1/2'
13 'x+1/2, -y+1/2, -z'
14 '-x+1/2, y+1/2, -z'
15 '-x+1/2, -y+1/2, z+1/2'
16 'x+1/2, y+1/2, z+1/2'
loop_
_atom_type_symbol
_atom_type_oxidation_number
Sc0+ 0
Pb0+ 0
loop_
_atom_site_label
_atom_site_type_symbol
_atom_site_symmetry_multiplicity
_atom_site_Wyckoff_symbol
_atom_site_fract_x
_atom_site_fract_y
_atom_site_fract_z
_atom_site_B_iso_or_equiv
_atom_site_occupancy
_atom_site_attached_hydrogens
Sc1 Sc0+ 8 j 0.1104(9) 0.1426(4) 0. 0.0220(10) 1 0
Sc2 Sc0+ 8 j 0.2335(7) 0.4401(3) 0. 0.0160(10) 1 0
Sc3 Sc0+ 8 g 0. 0.3049(3) 0.25 0.0170(10) 1 0
Pb1 Pb0+ 8 j 0.3032(2) 0.29360(10) 0. 0.0161(4) 1 0
Pb2 Pb0+ 8 j 0.3981(2) 0.07540(10) 0. 0.0172(4) 1 0
Pb3 Pb0+ 4 a 0. 0. 0.25 0.0167(5) 1 0
loop_
_atom_site_aniso_label
_atom_site_aniso_type_symbol
_atom_site_aniso_U_11
_atom_site_aniso_U_22
_atom_site_aniso_U_33
_atom_site_aniso_U_12
_atom_site_aniso_U_13
_atom_site_aniso_U_23
Sc1 Sc0+ 0.018(3) 0.021(3) 0.027(4) 0.001(3) 0. 0.
Sc2 Sc0+ 0.015(3) 0.010(3) 0.022(3) 0.000(2) 0. 0.
Sc3 Sc0+ 0.023(3) 0.011(2) 0.019(4) 0. 0.000(3) 0.
Pb1 Pb0+ 0.0147(6) 0.0129(6) 0.0208(7) 0.0006(5) 0. 0.
Pb2 Pb0+ 0.0151(6) 0.0128(6) 0.0237(7) -0.0012(5) 0. 0.
Pb3 Pb0+ 0.0155(8) 0.0177(8) 0.0167(10) 0. 0. 0.
#End of TTdata_170063-ICSD