
#(C) 2017 by FIZ Karlsruhe - Leibniz Institute for Information Infrastructure.  All rights reserved.
data_170241-ICSD
_database_code_ICSD 170241
_audit_creation_date 2006-04-01
_chemical_name_systematic 'Barium dimagnesium'
_chemical_formula_structural 'Ba Mg2'
_chemical_formula_sum 'Ba1 Mg2'
_chemical_name_structure_type Laves(2H)-MgZn2
_exptl_crystal_density_diffrn 3.02
_publ_section_title

;
Phase stability in the systems Ae Al(2-x) Mg(x) (Ae = Ca, Sr, Ba): electron
concentration and size controlled variations on the Laves phases structural
theme
;
loop_
_citation_id
_citation_journal_full
_citation_year
_citation_journal_volume
_citation_page_first
_citation_page_last
_citation_journal_id_ASTM
primary 'Inorganic Chemistry' 2004 43 4751 4760 INOCAJ
loop_
_publ_author_name
'Amerioun, S.'
'Yokosawa, T.'
'Lidin, S.'
'Haeussermann, U.'
_cell_length_a 6.6699(9)
_cell_length_b 6.6699(9)
_cell_length_c 10.602(2)
_cell_angle_alpha 90.
_cell_angle_beta 90.
_cell_angle_gamma 120.
_cell_volume 408.47
_cell_formula_units_Z 4
_symmetry_space_group_name_H-M 'P 63/m m c'
_symmetry_Int_Tables_number 194
_refine_ls_R_factor_all 0.0343
loop_
_symmetry_equiv_pos_site_id
_symmetry_equiv_pos_as_xyz
1 'x, x-y, -z+1/2'
2 '-x+y, y, -z+1/2'
3 '-y, -x, -z+1/2'
4 '-x+y, -x, -z+1/2'
5 '-y, x-y, -z+1/2'
6 'x, y, -z+1/2'
7 '-x, -x+y, z+1/2'
8 'x-y, -y, z+1/2'
9 'y, x, z+1/2'
10 'x-y, x, z+1/2'
11 'y, -x+y, z+1/2'
12 '-x, -y, z+1/2'
13 '-x, -x+y, -z'
14 'x-y, -y, -z'
15 'y, x, -z'
16 'x-y, x, -z'
17 'y, -x+y, -z'
18 '-x, -y, -z'
19 'x, x-y, z'
20 '-x+y, y, z'
21 '-y, -x, z'
22 '-x+y, -x, z'
23 '-y, x-y, z'
24 'x, y, z'
loop_
_atom_type_symbol
_atom_type_oxidation_number
Ba0+ 0
Mg0+ 0
loop_
_atom_site_label
_atom_site_type_symbol
_atom_site_symmetry_multiplicity
_atom_site_Wyckoff_symbol
_atom_site_fract_x
_atom_site_fract_y
_atom_site_fract_z
_atom_site_B_iso_or_equiv
_atom_site_occupancy
_atom_site_attached_hydrogens
Ba1 Ba0+ 4 f 0.3333 0.6667 0.05720(7) 0.0221(3) 1 0
Mg1 Mg0+ 2 a 0. 0. 0. 0.0209(12) 1 0
Mg2 Mg0+ 6 h 0.8376(3) 0.6752(7) 0.25 0.0225(7) 1 0
loop_
_atom_site_aniso_label
_atom_site_aniso_type_symbol
_atom_site_aniso_U_11
_atom_site_aniso_U_22
_atom_site_aniso_U_33
_atom_site_aniso_U_12
_atom_site_aniso_U_13
_atom_site_aniso_U_23
Ba1 Ba0+ 0.0214(3) 0.0214(3) 0.0234(4) 0.01069(17) 0. 0.
Mg1 Mg0+ 0.0201(18) 0.0201(18) 0.022(3) 0.0101(9) 0. 0.
Mg2 Mg0+ 0.0230(13) 0.0212(18) 0.0227(15) 0.0106(9) 0. 0.
#End of TTdata_170241-ICSD