
#(C) 2017 by FIZ Karlsruhe - Leibniz Institute for Information Infrastructure.  All rights reserved.
data_170598-ICSD
_database_code_ICSD 170598
_audit_creation_date 2006-04-01
_chemical_name_systematic 'Sodium rhodium oxide'
_chemical_formula_structural 'Na Rh2 O4'
_chemical_formula_sum 'Na1 O4 Rh2'
_chemical_name_structure_type CaFe2O4
_exptl_crystal_density_diffrn 6.53
_cell_measurement_temperature 295.
_publ_section_title

;
High-pressure synthesis, crystal structure determination, and a Ca
substitution study of the metallic rhodium oxide Na Rh2 O4
;
loop_
_citation_id
_citation_journal_full
_citation_year
_citation_journal_volume
_citation_page_first
_citation_page_last
_citation_journal_id_ASTM
primary 'Chemistry of Materials' 2005 17 359 365 CMATEX
loop_
_publ_author_name
'Yamaura, K.'
'Huang, Q.'
'Moldovan, M.'
'Young, D.P.'
'Sato, A.'
'Baba, Y.'
'Nagai, T.'
'Matsui, Y.'
'Takayama Muromachi, E.'
_cell_length_a 9.0026(4)
_cell_length_b 3.0461(2)
_cell_length_c 10.7268(5)
_cell_angle_alpha 90.
_cell_angle_beta 90.
_cell_angle_gamma 90.
_cell_volume 294.16
_cell_formula_units_Z 4
_symmetry_space_group_name_H-M 'P n m a'
_symmetry_Int_Tables_number 62
_refine_ls_R_factor_all 0.0391
loop_
_symmetry_equiv_pos_site_id
_symmetry_equiv_pos_as_xyz
1 'x+1/2, y, -z+1/2'
2 'x, -y+1/2, z'
3 '-x+1/2, y+1/2, z+1/2'
4 '-x, -y, -z'
5 '-x+1/2, -y, z+1/2'
6 '-x, y+1/2, -z'
7 'x+1/2, -y+1/2, -z+1/2'
8 'x, y, z'
loop_
_atom_type_symbol
_atom_type_oxidation_number
Na1+ 1
Rh3+ 3.5
O2- -2
loop_
_atom_site_label
_atom_site_type_symbol
_atom_site_symmetry_multiplicity
_atom_site_Wyckoff_symbol
_atom_site_fract_x
_atom_site_fract_y
_atom_site_fract_z
_atom_site_B_iso_or_equiv
_atom_site_occupancy
_atom_site_attached_hydrogens
Na1 Na1+ 4 c 0.7629(6) 0.25 0.6577(6) 0.0140(12) 1. 0
Rh1 Rh3+ 4 c 0.4137(4) 0.25 0.1029(3) 0.00590(47) 1. 0
Rh2 Rh3+ 4 c 0.4431(4) 0.25 0.6162(3) 0.00590(47) 1. 0
O1 O2- 4 c 0.1982(4) 0.25 0.1579(3) 0.00759(69) 1. 0
O2 O2- 4 c 0.1166(3) 0.25 0.4797(3) 0.00729(77) 1. 0
O3 O2- 4 c 0.5319(4) 0.25 0.7862(3) 0.00832(68) 1. 0
O4 O2- 4 c 0.4178(4) 0.25 0.4295(3) 0.00598(69) 1. 0
#End of TTdata_170598-ICSD