
#(C) 2017 by FIZ Karlsruhe - Leibniz Institute for Information Infrastructure.  All rights reserved.
data_170608-ICSD
_database_code_ICSD 170608
_audit_creation_date 2006-04-01
_audit_update_record 2011-02-01
_chemical_name_systematic 'Lanthanum nickel boride (2/5/4)'
_chemical_formula_structural 'La2 Ni5 B4'
_chemical_formula_sum 'B4 La2 Ni5'
_chemical_name_structure_type La2Ni5B4
_exptl_crystal_density_diffrn 7.22
_publ_section_title

;
Boron-induced hydrogen localization in the novel metal hydride La Ni3 B H(x)
(x=2.5-3.0)
;
loop_
_citation_id
_citation_journal_full
_citation_year
_citation_journal_volume
_citation_page_first
_citation_page_last
_citation_journal_id_ASTM
primary 'Inorganic Chemistry' 2005 44 4398 4406 INOCAJ
loop_
_publ_author_name
'Filinchuk, Ya.E.'
'Yvon, K.'
_cell_length_a 9.7996(6)
_cell_length_b 5.1740(3)
_cell_length_c 8.1023(5)
_cell_angle_alpha 90.
_cell_angle_beta 136.478(4)
_cell_angle_gamma 90.
_cell_volume 282.9
_cell_formula_units_Z 2
_symmetry_space_group_name_H-M 'C 1 2/m 1'
_symmetry_Int_Tables_number 12
_refine_ls_R_factor_all 0.0632
loop_
_symmetry_equiv_pos_site_id
_symmetry_equiv_pos_as_xyz
1 '-x, y, -z'
2 '-x, -y, -z'
3 'x, -y, z'
4 'x, y, z'
5 '-x+1/2, y+1/2, -z'
6 '-x+1/2, -y+1/2, -z'
7 'x+1/2, -y+1/2, z'
8 'x+1/2, y+1/2, z'
loop_
_atom_type_symbol
_atom_type_oxidation_number
La0+ 0
Ni0+ 0
B0+ 0
loop_
_atom_site_label
_atom_site_type_symbol
_atom_site_symmetry_multiplicity
_atom_site_Wyckoff_symbol
_atom_site_fract_x
_atom_site_fract_y
_atom_site_fract_z
_atom_site_B_iso_or_equiv
_atom_site_occupancy
_atom_site_attached_hydrogens
La1 La0+ 4 i 0.0772 0. 0.3513 0.00507 1. 0
Ni1 Ni0+ 8 j 0.2036 0.251 0.1293 0.00507 1. 0
Ni2 Ni0+ 2 d 0.5 0. 0.5 0.00887 1. 0
B1 B0+ 4 i 0.381 0. 0.159 0.00887 1. 0
B2 B0+ 4 i 0.459 0. 0.861 0.01013 1. 0
#End of TTdata_170608-ICSD