
#(C) 2017 by FIZ Karlsruhe - Leibniz Institute for Information Infrastructure.  All rights reserved.
data_170609-ICSD
_database_code_ICSD 170609
_audit_creation_date 2006-04-01
_audit_update_record 2013-02-01
_chemical_name_systematic 'Lanthanum tetranickel boride'
_chemical_formula_structural 'La Ni4 B'
_chemical_formula_sum 'B1 La1 Ni4'
_chemical_name_structure_type CeCo4B
_exptl_crystal_density_diffrn 8.05
_publ_section_title

;
Boron-induced hydrogen localization in the novel metal hydride La Ni3 B H(x)
(x=2.5-3.0)
;
loop_
_citation_id
_citation_journal_full
_citation_year
_citation_journal_volume
_citation_page_first
_citation_page_last
_citation_journal_id_ASTM
primary 'Inorganic Chemistry' 2005 44 4398 4406 INOCAJ
loop_
_publ_author_name
'Filinchuk, Ya.E.'
'Yvon, K.'
_cell_length_a 5.121315(3)
_cell_length_b 5.121315(3)
_cell_length_c 6.987953(3)
_cell_angle_alpha 90.
_cell_angle_beta 90.
_cell_angle_gamma 120.
_cell_volume 158.72
_cell_formula_units_Z 2
_symmetry_space_group_name_H-M 'P 6/m m m'
_symmetry_Int_Tables_number 191
_refine_ls_R_factor_all 0.0632
loop_
_symmetry_equiv_pos_site_id
_symmetry_equiv_pos_as_xyz
1 '-x, -x+y, -z'
2 'x-y, -y, -z'
3 'y, x, -z'
4 '-x+y, -x, -z'
5 '-y, x-y, -z'
6 'x, y, -z'
7 'x, x-y, -z'
8 '-x+y, y, -z'
9 '-y, -x, -z'
10 'x-y, x, -z'
11 'y, -x+y, -z'
12 '-x, -y, -z'
13 'x, x-y, z'
14 '-x+y, y, z'
15 '-y, -x, z'
16 'x-y, x, z'
17 'y, -x+y, z'
18 '-x, -y, z'
19 '-x, -x+y, z'
20 'x-y, -y, z'
21 'y, x, z'
22 '-x+y, -x, z'
23 '-y, x-y, z'
24 'x, y, z'
loop_
_atom_type_symbol
_atom_type_oxidation_number
La0+ 0
Ni0+ 0
B0+ 0
loop_
_atom_site_label
_atom_site_type_symbol
_atom_site_symmetry_multiplicity
_atom_site_Wyckoff_symbol
_atom_site_fract_x
_atom_site_fract_y
_atom_site_fract_z
_atom_site_B_iso_or_equiv
_atom_site_occupancy
_atom_site_attached_hydrogens
La1 La0+ 1 a 0. 0. 0. 0.00633 1. 0
La2 La0+ 1 b 0. 0. 0.5 0.00633 1. 0
Ni1 Ni0+ 2 c 0.3333 0.6667 0. 0.00887 1. 0
Ni2 Ni0+ 6 i 0.5 0. 0.26931 0.00887 1. 0
B1 B0+ 2 d 0.3333 0.6667 0.5 0.01267 1. 0
#End of TTdata_170609-ICSD