
data_170856-ICSD
_database_code_ICSD 170856
_audit_creation_date 2006-04-01
_chemical_name_systematic 'Barium disilver tin selenide'
_chemical_formula_structural 'Ba Ag2 Sn Se4'
_chemical_formula_sum 'Ag2 Ba1 Se4 Sn1'
_chemical_name_structure_type Ag2BaSnS4
_exptl_crystal_density_diffrn 5.88
_cell_measurement_temperature 298.
_cell_length_a 7.1154(7)
_cell_length_b 7.4994(7)
_cell_length_c 8.3375(8)
_cell_angle_alpha 90.
_cell_angle_beta 90.
_cell_angle_gamma 90.
_cell_volume 444.9
_cell_formula_units_Z 2
_symmetry_space_group_name_H-M 'I 2 2 2'
_symmetry_Int_Tables_number 23
_refine_ls_R_factor_all 0.0281
loop_
_symmetry_equiv_pos_site_id
_symmetry_equiv_pos_as_xyz
1 '-x, y, -z'
2 'x, -y, -z'
3 '-x, -y, z'
4 'x, y, z'
5 '-x+1/2, y+1/2, -z+1/2'
6 'x+1/2, -y+1/2, -z+1/2'
7 '-x+1/2, -y+1/2, z+1/2'
8 'x+1/2, y+1/2, z+1/2'
loop_
_atom_type_symbol
_atom_type_oxidation_number
Ba2+ 2
Sn4+ 4
Ag1+ 1
Se2- -2
loop_
_atom_site_label
_atom_site_type_symbol
_atom_site_symmetry_multiplicity
_atom_site_Wyckoff_symbol
_atom_site_fract_x
_atom_site_fract_y
_atom_site_fract_z
_atom_site_B_iso_or_equiv
_atom_site_occupancy
_atom_site_attached_hydrogens
Ba1 Ba2+ 2 a 0. 0. 0. 0.01792(12) 1 0
Sn1 Sn4+ 2 c 0. 0. 0.5 0.01466(12) 1 0
Ag1 Ag1+ 4 j 0. 0.5 0.19269(11) 0.04206(19) 1 0
Se1 Se2- 8 k 0.20515(6) 0.19588(5) 0.32798(6) 0.01770(12) 1 0
loop_
_atom_site_aniso_label
_atom_site_aniso_type_symbol
_atom_site_aniso_U_11
_atom_site_aniso_U_22
_atom_site_aniso_U_33
_atom_site_aniso_U_12
_atom_site_aniso_U_13
_atom_site_aniso_U_23
Ba1 Ba2+ 0.0224(2) 0.01827(19) 0.0131(2) 0. 0. 0.
Sn1 Sn4+ 0.0149(2) 0.0154(2) 0.0137(2) 0. 0. 0.
Ag1 Ag1+ 0.0294(3) 0.0403(3) 0.0564(5) -0.0120(3) 0. 0.
Se1 Se2- 0.01774(18) 0.01665(18) 0.01872(19) -0.00289(13) 0.00032(16)
0.00229(15)
