
#(C) 2017 by FIZ Karlsruhe - Leibniz Institute for Information Infrastructure.  All rights reserved.
data_171243-ICSD
_database_code_ICSD 171243
_audit_creation_date 2006-10-01
_chemical_name_systematic 'Hexacalcium dicopper heptastannide'
_chemical_formula_structural 'Ca6 Cu2 Sn7'
_chemical_formula_sum 'Ca6 Cu2 Sn7'
_exptl_crystal_density_diffrn 4.95
_publ_section_title
'Ca6 Cu2 Sn7: Novel 3D open framework with unusual Sn4 tetramers'
loop_
_citation_id
_citation_journal_full
_citation_year
_citation_journal_volume
_citation_page_first
_citation_page_last
_citation_journal_id_ASTM
primary 'Inorganic Chemistry' 2005 44 9242 9246 INOCAJ
loop_
_publ_author_name
'Sun, Z.-M.'
'Xia, S.-Q.'
'Huang, Y.-Z.'
'Wu, L.-M.'
'Mao, J.-G.'
_cell_length_a 14.257(7)
_cell_length_b 4.564(2)
_cell_length_c 12.376(7)
_cell_angle_alpha 90.
_cell_angle_beta 93.979(6)
_cell_angle_gamma 90.
_cell_volume 803.35
_cell_formula_units_Z 2
_symmetry_space_group_name_H-M 'C 1 2/m 1'
_symmetry_Int_Tables_number 12
_refine_ls_R_factor_all 0.0308
loop_
_symmetry_equiv_pos_site_id
_symmetry_equiv_pos_as_xyz
1 '-x, y, -z'
2 '-x, -y, -z'
3 'x, -y, z'
4 'x, y, z'
5 '-x+1/2, y+1/2, -z'
6 '-x+1/2, -y+1/2, -z'
7 'x+1/2, -y+1/2, z'
8 'x+1/2, y+1/2, z'
loop_
_atom_type_symbol
_atom_type_oxidation_number
Ca2+ 2
Cu1+ 1
Sn2- -2
loop_
_atom_site_label
_atom_site_type_symbol
_atom_site_symmetry_multiplicity
_atom_site_Wyckoff_symbol
_atom_site_fract_x
_atom_site_fract_y
_atom_site_fract_z
_atom_site_B_iso_or_equiv
_atom_site_occupancy
_atom_site_attached_hydrogens
Ca1 Ca2+ 4 i 0.13732(10) 0.5 0.00313(11) 0.0107(3) 1 0
Ca2 Ca2+ 4 i 0.46213(10) 0. 0.29938(11) 0.0106(3) 1 0
Ca3 Ca2+ 4 i 0.19481(10) 0. 0.29313(12) 0.0120(3) 1 0
Cu1 Cu1+ 4 i 0.33052(6) 0.5 0.38882(7) 0.0133(2) 1 0
Sn1 Sn2- 4 i 0.31799(3) 0.5 0.17556(4) 0.00925(14) 1 0
Sn2 Sn2- 4 i 0.51039(3) 0.5 0.11806(4) 0.00948(14) 1 0
Sn3 Sn2- 4 i 0.15953(3) 0.5 0.48156(4) 0.01037(14) 1 0
Sn4 Sn2- 2 c 0.5 0.5 0.5 0.01435(19) 1 0
loop_
_atom_site_aniso_label
_atom_site_aniso_type_symbol
_atom_site_aniso_U_11
_atom_site_aniso_U_22
_atom_site_aniso_U_33
_atom_site_aniso_U_12
_atom_site_aniso_U_13
_atom_site_aniso_U_23
Ca1 Ca2+ 0.0148(7) 0.0043(7) 0.0130(7) 0. 0.0003(5) 0.
Ca2 Ca2+ 0.0158(7) 0.0049(7) 0.0113(7) 0. 0.0019(5) 0.
Ca3 Ca2+ 0.0160(7) 0.0060(7) 0.0138(7) 0. -0.0003(5) 0.
Cu1 Cu1+ 0.0186(5) 0.0086(4) 0.0127(4) 0. 0.0025(3) 0.
Sn1 Sn2- 0.0129(3) 0.0059(2) 0.0091(2) 0. 0.00187(18) 0.
Sn2 Sn2- 0.0130(2) 0.0058(2) 0.0098(3) 0. 0.00206(18) 0.
Sn3 Sn2- 0.0165(3) 0.0050(2) 0.0100(2) 0. 0.00291(18) 0.
Sn4 Sn2- 0.0196(4) 0.0051(3) 0.0173(4) 0. -0.0058(3) 0.
#End of TTdata_171243-ICSD