
#(C) 2017 by FIZ Karlsruhe - Leibniz Institute for Information Infrastructure.  All rights reserved.
data_172008-ICSD
_database_code_ICSD 172008
_audit_creation_date 2007-04-01
_chemical_name_systematic 'Calcium strontium plumbide'
_chemical_formula_structural 'Ca Sr Pb'
_chemical_formula_sum 'Ca1 Pb1 Sr1'
_chemical_name_structure_type TiNiSi-MgSrSi
_exptl_crystal_density_diffrn 5.17
_publ_section_title

;
Synthesis, structure, and properties of four ternary compounds Ca Sr Tt, Tt =
Si, Ge, Sn, Pb
;
loop_
_citation_id
_citation_journal_full
_citation_year
_citation_journal_volume
_citation_page_first
_citation_page_last
_citation_journal_id_ASTM
primary 'Journal of Solid State Chemistry' 2006 179 830 835 JSSCBI
loop_
_publ_author_name
'Liu, S.'
'Corbett, J.D.'
_cell_length_a 8.509(2)
_cell_length_b 5.189(1)
_cell_length_c 9.740(2)
_cell_angle_alpha 90.
_cell_angle_beta 90.
_cell_angle_gamma 90.
_cell_volume 430.05
_cell_formula_units_Z 4
_symmetry_space_group_name_H-M 'P n m a'
_symmetry_Int_Tables_number 62
_refine_ls_R_factor_all 0.054
loop_
_symmetry_equiv_pos_site_id
_symmetry_equiv_pos_as_xyz
1 'x+1/2, y, -z+1/2'
2 'x, -y+1/2, z'
3 '-x+1/2, y+1/2, z+1/2'
4 '-x, -y, -z'
5 '-x+1/2, -y, z+1/2'
6 '-x, y+1/2, -z'
7 'x+1/2, -y+1/2, -z+1/2'
8 'x, y, z'
loop_
_atom_type_symbol
_atom_type_oxidation_number
Ca2+ 2
Sr2+ 2
Pb4- -4
loop_
_atom_site_label
_atom_site_type_symbol
_atom_site_symmetry_multiplicity
_atom_site_Wyckoff_symbol
_atom_site_fract_x
_atom_site_fract_y
_atom_site_fract_z
_atom_site_B_iso_or_equiv
_atom_site_occupancy
_atom_site_attached_hydrogens
Ca1 Ca2+ 4 c 0.1492(4) 0.25 0.0693(3) 0.013(1) 1. 0
Sr1 Sr2+ 4 c 0.0218(2) 0.25 0.6801(2) 0.020(1) 1. 0
Pb1 Pb4- 4 c 0.2622(1) 0.25 0.3887(1) 0.017(1) 1. 0
loop_
_atom_site_aniso_label
_atom_site_aniso_type_symbol
_atom_site_aniso_U_11
_atom_site_aniso_U_22
_atom_site_aniso_U_33
_atom_site_aniso_U_12
_atom_site_aniso_U_13
_atom_site_aniso_U_23
Ca1 Ca2+ 0.014(2) 0.012(1) 0.012(1) 0 0.001(1) 0
Sr1 Sr2+ 0.018(1) 0.024(1) 0.018(1) 0 0.000(1) 0
Pb1 Pb4- 0.017(1) 0.017(1) 0.017(1) 0 0.001(1) 0
#End of TTdata_172008-ICSD