
#(C) 2017 by FIZ Karlsruhe - Leibniz Institute for Information Infrastructure.  All rights reserved.
data_172608-ICSD
_database_code_ICSD 172608
_audit_creation_date 2007-04-01
_audit_update_record 2013-08-01
_chemical_name_systematic 'Sodium diruthenium(III,IV) oxide'
_chemical_formula_structural 'Na Ru2 O4'
_chemical_formula_sum 'Na1 O4 Ru2'
_chemical_name_structure_type CaFe2O4
_exptl_crystal_density_diffrn 6.57
_publ_section_title 'Structure and magnetism of Na Ru2 O4 and Na2.7 Ru4 O9'
loop_
_citation_id
_citation_journal_full
_citation_year
_citation_journal_volume
_citation_page_first
_citation_page_last
_citation_journal_id_ASTM
primary 'Journal of Solid State Chemistry' 2006 179 195 204 JSSCBI
loop_
_publ_author_name
'Regan, K.A.'
'Huang, Q.'
'Lee, M.'
'Ramirez, A.P.'
'Cava, J.R.'
_cell_length_a 9.2737(4)
_cell_length_b 2.8215(1)
_cell_length_c 11.1701(5)
_cell_angle_alpha 90.
_cell_angle_beta 90.
_cell_angle_gamma 90.
_cell_volume 292.27
_cell_formula_units_Z 4
_symmetry_space_group_name_H-M 'P n m a'
_symmetry_Int_Tables_number 62
loop_
_symmetry_equiv_pos_site_id
_symmetry_equiv_pos_as_xyz
1 'x+1/2, y, -z+1/2'
2 'x, -y+1/2, z'
3 '-x+1/2, y+1/2, z+1/2'
4 '-x, -y, -z'
5 '-x+1/2, -y, z+1/2'
6 '-x, y+1/2, -z'
7 'x+1/2, -y+1/2, -z+1/2'
8 'x, y, z'
loop_
_atom_type_symbol
_atom_type_oxidation_number
Ru3+ 3.5
Na1+ 1
O2- -2
loop_
_atom_site_label
_atom_site_type_symbol
_atom_site_symmetry_multiplicity
_atom_site_Wyckoff_symbol
_atom_site_fract_x
_atom_site_fract_y
_atom_site_fract_z
_atom_site_B_iso_or_equiv
_atom_site_occupancy
_atom_site_attached_hydrogens
Ru1 Ru3+ 4 c 0.0603(3) 0.25 0.1152(2) 0.0100(7) 1. 0
Ru2 Ru3+ 4 c 0.0848(3) 0.25 0.6036(2) 0.0107(6) 1. 0
Na1 Na1+ 4 c 0.2399(6) 0.25 0.3397(5) 0.0129(11) 1. 0
O1 O2- 4 c 0.2946(3) 0.25 0.6594(3) 0.0076(8) 1. 0
O2 O2- 4 c 0.3847(3) 0.25 0.9751(3) 0.0102(7) 1. 0
O3 O2- 4 c 0.4730(3) 0.25 0.2181(3) 0.0066(8) 1. 0
O4 O2- 4 c 0.0870(3) 0.25 0.9347(3) 0.0078(8) 1. 0
#End of TTdata_172608-ICSD