
#(C) 2017 by FIZ Karlsruhe - Leibniz Institute for Information Infrastructure.  All rights reserved.
data_173216-ICSD
_database_code_ICSD 173216
_audit_creation_date 2008-08-01
_chemical_name_systematic 'Trilithium vanadate(V) hexahydrate'
_chemical_formula_structural 'Li3 (V O4) (H2 O)6'
_chemical_formula_sum 'H12 Li3 O10 V1'
_exptl_crystal_density_diffrn 1.74
_cell_measurement_temperature 293.
_publ_section_title 'Hydrates of Li3 V O4: synthesis and structural chemistry'
loop_
_citation_id
_citation_journal_full
_citation_year
_citation_journal_volume
_citation_page_first
_citation_page_last
_citation_journal_id_ASTM
primary 'Zeitschrift fuer Naturforschung, B: Chemical Sciences' 2007 62 1235
1245 ZNBSEN
loop_
_publ_author_name
'Schnabel, S.'
'Roehr, C.'
_cell_length_a 9.629(2)
_cell_length_b 9.629(2)
_cell_length_c 8.692(2)
_cell_angle_alpha 90.
_cell_angle_beta 90.
_cell_angle_gamma 120.
_cell_volume 697.93
_cell_formula_units_Z 3
_symmetry_space_group_name_H-M 'R 3 H'
_symmetry_Int_Tables_number 146
_refine_ls_R_factor_all 0.026
loop_
_symmetry_equiv_pos_site_id
_symmetry_equiv_pos_as_xyz
1 '-x+y, -x, z'
2 '-y, x-y, z'
3 'x, y, z'
4 '-x+y+2/3, -x+1/3, z+1/3'
5 '-y+2/3, x-y+1/3, z+1/3'
6 'x+2/3, y+1/3, z+1/3'
7 '-x+y+1/3, -x+2/3, z+2/3'
8 '-y+1/3, x-y+2/3, z+2/3'
9 'x+1/3, y+2/3, z+2/3'
loop_
_atom_type_symbol
_atom_type_oxidation_number
Li1+ 1
V5+ 5
O2- -2
H1+ 1
loop_
_atom_site_label
_atom_site_type_symbol
_atom_site_symmetry_multiplicity
_atom_site_Wyckoff_symbol
_atom_site_fract_x
_atom_site_fract_y
_atom_site_fract_z
_atom_site_B_iso_or_equiv
_atom_site_occupancy
_atom_site_attached_hydrogens
Li1 Li1+ 9 b 0.1470(4) 0.4426(5) 0.2983(4) 0.0239(6) 1. 0
V1 V5+ 3 a 0 0 0.067690(6) 0.0122(2) 1. 0
O1 O2- 3 a 0 0 0.2644(2) 0.0215(4) 1. 0
O2 O2- 9 b 0.14708(17) 0.18135(16) 0.00000(17) 0.0220(3) 1. 0
O3 O2- 9 b 0.094462 0.4174(2) 0.07467(15) 0.0208(3) 1. 0
O4 O2- 9 b 0.4630(2) 0.29837(19) 0.02905(17) 0.0206(3) 1. 0
#End of TTdata_173216-ICSD