
#(C) 2017 by FIZ Karlsruhe - Leibniz Institute for Information Infrastructure.  All rights reserved.
data_173374-ICSD
_database_code_ICSD 173374
_audit_creation_date 2008-08-01
_chemical_name_systematic 'Boron tribromide'
_chemical_formula_structural 'B Br3'
_chemical_formula_sum 'B1 Br3'
_chemical_name_structure_type BCl3
_exptl_crystal_density_diffrn 3.39
_cell_measurement_temperature 101.
_publ_section_title
'Reference values for the B - X bond lengths of B I3 and B Br3'
loop_
_citation_id
_citation_journal_full
_citation_year
_citation_journal_volume
_citation_page_first
_citation_page_last
_citation_journal_id_ASTM
primary 'Zeitschrift fuer Anorganische und Allgemeine Chemie (1950) (DE)' 2008
634 704 707 ZAACAB
loop_
_publ_author_name
'Santiso-Quinones, G.'
'Krossing, I.'
_cell_length_a 6.4304(9)
_cell_length_b 6.4304(9)
_cell_length_c 6.8466(14)
_cell_angle_alpha 90.
_cell_angle_beta 90.
_cell_angle_gamma 120.
_cell_volume 245.18
_cell_formula_units_Z 2
_symmetry_space_group_name_H-M 'P 63/m'
_symmetry_Int_Tables_number 176
_refine_ls_R_factor_all 0.0261
loop_
_symmetry_equiv_pos_site_id
_symmetry_equiv_pos_as_xyz
1 '-x+y, -x, -z+1/2'
2 '-y, x-y, -z+1/2'
3 'x, y, -z+1/2'
4 'x-y, x, -z'
5 'y, -x+y, -z'
6 '-x, -y, -z'
7 'x-y, x, z+1/2'
8 'y, -x+y, z+1/2'
9 '-x, -y, z+1/2'
10 '-x+y, -x, z'
11 '-y, x-y, z'
12 'x, y, z'
loop_
_atom_type_symbol
_atom_type_oxidation_number
B3+ 3
Br1- -1
loop_
_atom_site_label
_atom_site_type_symbol
_atom_site_symmetry_multiplicity
_atom_site_Wyckoff_symbol
_atom_site_fract_x
_atom_site_fract_y
_atom_site_fract_z
_atom_site_B_iso_or_equiv
_atom_site_occupancy
_atom_site_attached_hydrogens
B1 B3+ 2 c 0.3333 0.6667 0.25 0.0135(11) 1 0
Br1 Br1- 6 h 0.04715(7) 0.36314(7) 0.25 0.01927(13) 1 0
loop_
_atom_site_aniso_label
_atom_site_aniso_type_symbol
_atom_site_aniso_U_11
_atom_site_aniso_U_22
_atom_site_aniso_U_33
_atom_site_aniso_U_12
_atom_site_aniso_U_13
_atom_site_aniso_U_23
B1 B3+ 0.0134(16) 0.0134(16) 0.013(2) 0.0067(8) 0. 0.
Br1 Br1- 0.01469(19) 0.01392(18) 0.0259(2) 0.00465(13) 0. 0.
#End of TTdata_173374-ICSD