
data_173631-ICSD
_database_code_ICSD 173631
_audit_creation_date 2009-02-01
_chemical_name_systematic 'Lanthanum tantalate'
_chemical_formula_structural 'La (Ta O4)'
_chemical_formula_sum 'La1 O4 Ta1'
_chemical_name_structure_type BaCuF4
_exptl_crystal_density_diffrn 7.79
_cell_length_a 5.6415(82)
_cell_length_b 14.719(51)
_cell_length_c 3.9404(41)
_cell_angle_alpha 90.
_cell_angle_beta 90.
_cell_angle_gamma 90.
_cell_volume 327.2
_cell_formula_units_Z 4
_symmetry_space_group_name_H-M 'A 21 a m'
_symmetry_Int_Tables_number 36
loop_
_symmetry_equiv_pos_site_id
_symmetry_equiv_pos_as_xyz
1 'x+1/2, -y, z'
2 'x+1/2, -y, -z'
3 'x, y, -z'
4 'x, y, z'
5 'x+1/2, -y+1/2, z+1/2'
6 'x+1/2, -y+1/2, -z+1/2'
7 'x, y+1/2, -z+1/2'
8 'x, y+1/2, z+1/2'
loop_
_atom_type_symbol
_atom_type_oxidation_number
La3+ 3
Ta5+ 5
O2- -2
loop_
_atom_site_label
_atom_site_type_symbol
_atom_site_symmetry_multiplicity
_atom_site_Wyckoff_symbol
_atom_site_fract_x
_atom_site_fract_y
_atom_site_fract_z
_atom_site_B_iso_or_equiv
_atom_site_occupancy
_atom_site_attached_hydrogens
La1 La3+ 4 a 0.171(28) 0.1682(24) 0 . 1. 0
Ta1 Ta5+ 4 a 0.212(30) 0.4144(24) 0 . 1. 0
O1 O2- 4 a 0.422(32) 0.3077(54) 0 . 1. 0
O2 O2- 4 a 0.949(42) 0.3381(55) 0 . 1. 0
O3 O2- 4 a 0.563(18) 0.4724(75) 0 . 1. 0
O4 O2- 4 a 0.2496 0.9055(51) 0 . 1. 0
