
#(C) 2017 by FIZ Karlsruhe - Leibniz Institute for Information Infrastructure.  All rights reserved.
data_173677-ICSD
_database_code_ICSD 173677
_audit_creation_date 2009-02-01
_audit_update_record 2013-08-01
_chemical_name_systematic 'Trizirconium tetraaluminium hexacarbide'
_chemical_formula_structural 'Zr3 Al4 C6'
_chemical_formula_sum 'C6 Al4 Zr3'
_chemical_name_structure_type Al4Zr3C6
_exptl_crystal_density_diffrn 4.84
_publ_section_title

;
Synthesis, crystal structures and Si solubilities of new layered carbides Zr2
Al4 C5 and Zr3 Al4 C6
;
loop_
_citation_id
_citation_journal_full
_citation_year
_citation_journal_volume
_citation_page_first
_citation_page_last
_citation_journal_id_ASTM
primary 'Journal of Solid State Chemistry' 2008 181 2864 2868 JSSCBI
loop_
_publ_author_name
'Sugiura, K.'
'Iwata, T.'
'Yoshida, H.'
'Hashimoto, S.'
'Fukuda, K.'
_cell_length_a 3.31807(2)
_cell_length_b 3.31807(2)
_cell_length_c 48.9771(3)
_cell_angle_alpha 90.
_cell_angle_beta 90.
_cell_angle_gamma 120.
_cell_volume 466.98
_cell_formula_units_Z 3
_symmetry_space_group_name_H-M 'R 3 m H'
_symmetry_Int_Tables_number 160
loop_
_symmetry_equiv_pos_site_id
_symmetry_equiv_pos_as_xyz
1 '-x+y, y, z'
2 'x, x-y, z'
3 '-y, -x, z'
4 '-x+y, -x, z'
5 '-y, x-y, z'
6 'x, y, z'
7 '-x+y+2/3, y+1/3, z+1/3'
8 'x+2/3, x-y+1/3, z+1/3'
9 '-y+2/3, -x+1/3, z+1/3'
10 '-x+y+2/3, -x+1/3, z+1/3'
11 '-y+2/3, x-y+1/3, z+1/3'
12 'x+2/3, y+1/3, z+1/3'
13 '-x+y+1/3, y+2/3, z+2/3'
14 'x+1/3, x-y+2/3, z+2/3'
15 '-y+1/3, -x+2/3, z+2/3'
16 '-x+y+1/3, -x+2/3, z+2/3'
17 '-y+1/3, x-y+2/3, z+2/3'
18 'x+1/3, y+2/3, z+2/3'
loop_
_atom_type_symbol
_atom_type_oxidation_number
Zr4+ 4
Al3+ 3
C4- -4
loop_
_atom_site_label
_atom_site_type_symbol
_atom_site_symmetry_multiplicity
_atom_site_Wyckoff_symbol
_atom_site_fract_x
_atom_site_fract_y
_atom_site_fract_z
_atom_site_B_iso_or_equiv
_atom_site_occupancy
_atom_site_attached_hydrogens
Zr1 Zr4+ 3 a 0 0 0.3047(8) 0.38(1) 1. 0
Zr2 Zr4+ 3 a 0 0 0.6925(9) 0.45(5) 1. 0
Zr3 Zr4+ 3 a 0 0 0.9173(9) 0.63(6) 1. 0
Al1 Al3+ 3 a 0 0 0.0731(9) 1.08(4) 1. 0
Al2 Al3+ 3 a 0 0 0.1545(9) 1.08 1. 0
Al3 Al3+ 3 a 0 0 0.4474(9) 1.08 1. 0
Al4 Al3+ 3 a 0 0 0.5362(9) 1.08 1. 0
C1 C4- 3 a 0 0 0 0.62(8) 1. 0
C2 C4- 3 a 0 0 0.1120(12) 0.62 1. 0
C3 C4- 3 a 0 0 0.2194(8) 0.62 1. 0
C4 C4- 3 a 0 0 0.3871(7) 0.62 1. 0
C5 C4- 3 a 0 0 0.4976(12) 0.62 1. 0
C6 C4- 3 a 0 0 0.6091(3) 0.62 1. 0
#End of TTdata_173677-ICSD