
#(C) 2017 by FIZ Karlsruhe - Leibniz Institute for Information Infrastructure.  All rights reserved.
data_173842-ICSD
_database_code_ICSD 173842
_audit_creation_date 2009-08-01
_audit_update_record 2013-02-01
_chemical_name_systematic 'Barium zirconium phosphate(V) - beta'
_chemical_formula_structural 'Ba Zr (P O4)2'
_chemical_formula_sum 'Ba1 O8 P2 Zr1'
_chemical_name_structure_type KAl(MoO4)2
_exptl_crystal_density_diffrn 3.78
_cell_measurement_temperature 873.
_publ_section_title

;
Crystal structure and thermal expansion of the low- and high-temperature forms
of Ba M(IV) (P O4)2 compounds (M = Ti, Zr, Hf and Sn)
;
loop_
_citation_id
_citation_journal_full
_citation_year
_citation_journal_volume
_citation_page_first
_citation_page_last
_citation_journal_id_ASTM
primary 'Journal of Solid State Chemistry' 2009 182 1115 1120 JSSCBI
loop_
_publ_author_name
'Bregiroux, D.'
'Popa, K.'
'Jardin, R.'
'Raison, P.E.'
'Wallez, G.'
'Quarton, M.'
'Brunelli, M.'
'Ferrero, C.'
'Caciuffo, R.'
_cell_length_a 5.2145(4)
_cell_length_b 5.2145(4)
_cell_length_c 7.8165(4)
_cell_angle_alpha 90.
_cell_angle_beta 90.
_cell_angle_gamma 120.
_cell_volume 184.06
_cell_formula_units_Z 1
_symmetry_space_group_name_H-M 'P -3 m 1'
_symmetry_Int_Tables_number 164
_refine_ls_R_factor_all 0.0325
loop_
_symmetry_equiv_pos_site_id
_symmetry_equiv_pos_as_xyz
1 'x-y, -y, -z'
2 '-x, -x+y, -z'
3 'y, x, -z'
4 'x-y, x, -z'
5 'y, -x+y, -z'
6 '-x, -y, -z'
7 '-x+y, y, z'
8 'x, x-y, z'
9 '-y, -x, z'
10 '-x+y, -x, z'
11 '-y, x-y, z'
12 'x, y, z'
loop_
_atom_type_symbol
_atom_type_oxidation_number
Ba2+ 2
Zr4+ 4
P5+ 5
O2- -2
loop_
_atom_site_label
_atom_site_type_symbol
_atom_site_symmetry_multiplicity
_atom_site_Wyckoff_symbol
_atom_site_fract_x
_atom_site_fract_y
_atom_site_fract_z
_atom_site_B_iso_or_equiv
_atom_site_occupancy
_atom_site_attached_hydrogens
Ba1 Ba2+ 1 a 0 0 0 . 1. 0
Zr1 Zr4+ 1 b 0 0 0.5 . 1. 0
P1 P5+ 2 d 0.3333 0.6667 0.7320(3) . 1. 0
O1 O2- 2 d 0.3333 0.6667 0.9298(5) . 1. 0
O2 O2- 6 i 0.1745(4) 0.3490(4) 0.6655(4) . 1. 0
loop_
_atom_site_aniso_label
_atom_site_aniso_type_symbol
_atom_site_aniso_U_11
_atom_site_aniso_U_22
_atom_site_aniso_U_33
_atom_site_aniso_U_12
_atom_site_aniso_U_13
_atom_site_aniso_U_23
Ba1 Ba2+ 0.0380(3) 0.0380(3) 0.0111(2) 0.0190(3) 0 0
Zr1 Zr4+ 0.0114(3) 0.0114(3) 0.0092(3) 0.0057(3) 0 0
P1 P5+ 0.0141(3) 0.0141(3) 0.0092(4) 0.0071(3) 0 0
O1 O2- 0.0735(2) 0.0735(2) 0.0044(9) 0.0368(2) 0 0
O2 O2- 0.0402(9) 0.0368(8) 0.0197(8) 0.0201(9) 0 0.0138(9)
#End of TTdata_173842-ICSD