
#(C) 2017 by FIZ Karlsruhe - Leibniz Institute for Information Infrastructure.  All rights reserved.
data_173874-ICSD
_database_code_ICSD 173874
_audit_creation_date 2009-08-01
_chemical_name_systematic 'Dichromium rhenium(VI) oxide'
_chemical_formula_structural 'Cr2 Re O6'
_chemical_formula_sum 'Cr2 O6 Re1'
_chemical_name_structure_type ZnSb2O6
_exptl_crystal_density_diffrn 6.97
_publ_section_title

;
Cr(x) Re(1-x) O2 oxides with different rutile-like structures: changes in the
electronic configuration and resulting physical properties
;
loop_
_citation_id
_citation_journal_full
_citation_year
_citation_journal_volume
_citation_page_first
_citation_page_last
_citation_journal_id_ASTM
primary 'Journal of Solid State Chemistry' 2009 182 1506 1514 JSSCBI
loop_
_publ_author_name
'Mikhailova, D.'
'Ehrenberg, H.'
'Trots, D.'
'Brey, G.'
'Oswald, S.'
'Fuess, H.'
_cell_length_a 4.5420(1)
_cell_length_b 4.5420(1)
_cell_length_c 8.9173(4)
_cell_angle_alpha 90.
_cell_angle_beta 90.
_cell_angle_gamma 90.
_cell_volume 183.96
_cell_formula_units_Z 2
_symmetry_space_group_name_H-M 'P 42/m n m'
_symmetry_Int_Tables_number 136
_refine_ls_R_factor_all 0.0218
loop_
_symmetry_equiv_pos_site_id
_symmetry_equiv_pos_as_xyz
1 '-y+1/2, x+1/2, -z+1/2'
2 'y+1/2, -x+1/2, -z+1/2'
3 'y, x, -z'
4 '-y, -x, -z'
5 'y+1/2, -x+1/2, z+1/2'
6 '-y+1/2, x+1/2, z+1/2'
7 '-y, -x, z'
8 'y, x, z'
9 'x+1/2, -y+1/2, -z+1/2'
10 '-x+1/2, y+1/2, -z+1/2'
11 'x, y, -z'
12 '-x, -y, -z'
13 '-x+1/2, y+1/2, z+1/2'
14 'x+1/2, -y+1/2, z+1/2'
15 '-x, -y, z'
16 'x, y, z'
loop_
_atom_type_symbol
_atom_type_oxidation_number
Cr3+ 3
Re6+ 6
O2- -2
loop_
_atom_site_label
_atom_site_type_symbol
_atom_site_symmetry_multiplicity
_atom_site_Wyckoff_symbol
_atom_site_fract_x
_atom_site_fract_y
_atom_site_fract_z
_atom_site_B_iso_or_equiv
_atom_site_occupancy
_atom_site_attached_hydrogens
Cr1 Cr3+ 4 e 0 0 0.3329(8) . 1. 0
Re1 Re6+ 2 a 0 0 0 . 1. 0
O1 O2- 4 f 0.2930(18) 0.2930(18) 0 . 1. 0
O2 O2- 8 j 0.2985(12) 0.2985(12) 0.3383(12) . 1. 0
#End of TTdata_173874-ICSD