
#(C) 2017 by FIZ Karlsruhe - Leibniz Institute for Information Infrastructure.  All rights reserved.
data_173875-ICSD
_database_code_ICSD 173875
_audit_creation_date 2009-08-01
_chemical_name_systematic 'Chromium rhenium(V) oxide'
_chemical_formula_structural 'Cr Re O4'
_chemical_formula_sum 'Cr1 O4 Re1'
_chemical_name_structure_type CrPS4
_exptl_crystal_density_diffrn 8.18
_publ_section_title

;
Cr(x) Re(1-x) O2 oxides with different rutile-like structures: changes in the
electronic configuration and resulting physical properties
;
loop_
_citation_id
_citation_journal_full
_citation_year
_citation_journal_volume
_citation_page_first
_citation_page_last
_citation_journal_id_ASTM
primary 'Journal of Solid State Chemistry' 2009 182 1506 1514 JSSCBI
loop_
_publ_author_name
'Mikhailova, D.'
'Ehrenberg, H.'
'Trots, D.'
'Brey, G.'
'Oswald, S.'
'Fuess, H.'
_cell_length_a 9.3483(2)
_cell_length_b 5.6971(1)
_cell_length_c 4.6121(1)
_cell_angle_alpha 90.
_cell_angle_beta 91.99(1)
_cell_angle_gamma 90.
_cell_volume 245.48
_cell_formula_units_Z 4
_symmetry_space_group_name_H-M 'C 1 2/m 1'
_symmetry_Int_Tables_number 12
_refine_ls_R_factor_all 0.0266
loop_
_symmetry_equiv_pos_site_id
_symmetry_equiv_pos_as_xyz
1 '-x, y, -z'
2 '-x, -y, -z'
3 'x, -y, z'
4 'x, y, z'
5 '-x+1/2, y+1/2, -z'
6 '-x+1/2, -y+1/2, -z'
7 'x+1/2, -y+1/2, z'
8 'x+1/2, y+1/2, z'
loop_
_atom_type_symbol
_atom_type_oxidation_number
Cr3+ 3
Re5+ 5
O2- -2
loop_
_atom_site_label
_atom_site_type_symbol
_atom_site_symmetry_multiplicity
_atom_site_Wyckoff_symbol
_atom_site_fract_x
_atom_site_fract_y
_atom_site_fract_z
_atom_site_B_iso_or_equiv
_atom_site_occupancy
_atom_site_attached_hydrogens
Cr1 Cr3+ 4 i 0.2530(9) 0 0.5050(19) . 1. 0
Re1 Re5+ 4 g 0 0.7737(2) 0 . 1. 0
O1 O2- 8 j 0.1483(4) 0.2303(11) 0.2933(9) . 1. 0
O2 O2- 4 i 0.1249(9) 0 0.7820(20) . 1. 0
O3 O2- 4 i 0.4104(9) 0 0.2450(20) . 1. 0
#End of TTdata_173875-ICSD