
data_174199-ICSD
_database_code_ICSD 174199
_audit_creation_date 2010-08-01
_chemical_name_systematic 'Molybdenum platinum silicon (1/2/3)'
_chemical_formula_structural 'Mo Pt2 Si3'
_chemical_formula_sum 'Mo1 Pt2 Si3'
_exptl_crystal_density_diffrn 10.84
_cell_measurement_temperature 293.
_cell_length_a 3.48438(6)
_cell_length_b 9.15112(14)
_cell_length_c 5.48253(8)
_cell_angle_alpha 90.
_cell_angle_beta 90.
_cell_angle_gamma 90.
_cell_volume 174.82
_cell_formula_units_Z 2
_symmetry_space_group_name_H-M 'P m c 21'
_symmetry_Int_Tables_number 26
_refine_ls_R_factor_all 0.0223
loop_
_symmetry_equiv_pos_site_id
_symmetry_equiv_pos_as_xyz
1 'x, -y, z+1/2'
2 '-x, -y, z+1/2'
3 '-x, y, z'
4 'x, y, z'
loop_
_atom_type_symbol
_atom_type_oxidation_number
Mo0+ 0
Pt0+ 0
Si0+ 0
loop_
_atom_site_label
_atom_site_type_symbol
_atom_site_symmetry_multiplicity
_atom_site_Wyckoff_symbol
_atom_site_fract_x
_atom_site_fract_y
_atom_site_fract_z
_atom_site_B_iso_or_equiv
_atom_site_occupancy
_atom_site_attached_hydrogens
Mo1 Mo0+ 2 a 0. 0.60503(18) 0.0003(12) -0.0077(4) 1. 0
Pt1 Pt0+ 2 b 0.5 0.03196(9) 0. -0.00793(10) 1. 0
Pt2 Pt0+ 2 a 0. 0.28522(10) 0.0030(9) -0.00793(10) 1. 0
Si1 Si0+ 2 b 0.5 0.2218(9) 0.6822(15) -0.0127(7) 1. 0
Si2 Si0+ 2 b 0.5 0.4328(6) 0.1676(17) -0.0127(7) 1. 0
Si3 Si0+ 2 a 0. 0.1310(8) 0.3482(18) -0.0127(7) 1. 0
