
#(C) 2017 by FIZ Karlsruhe - Leibniz Institute for Information Infrastructure.  All rights reserved.
data_174299-ICSD
_database_code_ICSD 174299
_audit_creation_date 2010-08-01
_audit_update_record 2013-08-01
_chemical_name_systematic 'Ditin(IV) tin oxide'
_chemical_formula_structural 'Sn3 O4'
_chemical_formula_sum 'O4 Sn3'
_exptl_crystal_density_diffrn 6.64
_publ_section_title

;
Structure determination of the intermediate tin oxide Sn3 O4 by precession
electron diffraction
;
loop_
_citation_id
_citation_journal_full
_citation_year
_citation_journal_volume
_citation_page_first
_citation_page_last
_citation_journal_id_ASTM
primary 'Zeitschrift fuer Kristallographie - Crystalline Materials' 2010 225 56
66 ZKCMAJ
loop_
_publ_author_name
'White, T.A.'
'Moreno, M.S.'
'Midgley, P.A.'
_cell_length_a 8.0(2)
_cell_length_b 5.5(1)
_cell_length_c 4.8(1)
_cell_angle_alpha 90
_cell_angle_beta 95.9(5)
_cell_angle_gamma 90
_cell_volume 210.08
_cell_formula_units_Z 2
_symmetry_space_group_name_H-M 'P 1 2/c 1'
_symmetry_Int_Tables_number 13
loop_
_symmetry_equiv_pos_site_id
_symmetry_equiv_pos_as_xyz
1 'x, -y, z+1/2'
2 '-x, -y, -z'
3 '-x, y, -z+1/2'
4 'x, y, z'
loop_
_atom_type_symbol
_atom_type_oxidation_number
Sn4+ 4
Sn2+ 2
O2- -2
loop_
_atom_site_label
_atom_site_type_symbol
_atom_site_symmetry_multiplicity
_atom_site_Wyckoff_symbol
_atom_site_fract_x
_atom_site_fract_y
_atom_site_fract_z
_atom_site_B_iso_or_equiv
_atom_site_occupancy
_atom_site_attached_hydrogens
Sn1 Sn4+ 2 d 0.5 0 0.5 . 1. 0
Sn2 Sn2+ 4 g 0.83 0.5 0.71 . 1. 0
O1 O2- 4 g 0.73 0.68 0.5 . 1. 0
O2 O2- 4 g 0.4 0.7 0.77 . 1. 0
#End of TTdata_174299-ICSD