
data_174261-ICSD
_database_code_ICSD 174261
_audit_creation_date 2010-08-01
_chemical_name_systematic 'Barium palladium germanide (1/1/3)'
_chemical_formula_structural 'Ba Pd Ge3'
_chemical_formula_sum 'Ba1 Ge3 Pd1'
_chemical_name_structure_type BaNiSn3
_exptl_crystal_density_diffrn 7.14
_cell_length_a 4.5508(4)
_cell_length_b 4.5508(4)
_cell_length_c 10.3649(5)
_cell_angle_alpha 90.
_cell_angle_beta 90.
_cell_angle_gamma 90.
_cell_volume 214.65
_cell_formula_units_Z 2
_symmetry_space_group_name_H-M 'I 4 m m'
_symmetry_Int_Tables_number 107
_refine_ls_R_factor_all 0.014
loop_
_symmetry_equiv_pos_site_id
_symmetry_equiv_pos_as_xyz
1 '-y, x, z'
2 'y, -x, z'
3 '-y, -x, z'
4 'y, x, z'
5 'x, -y, z'
6 '-x, y, z'
7 '-x, -y, z'
8 'x, y, z'
9 '-y+1/2, x+1/2, z+1/2'
10 'y+1/2, -x+1/2, z+1/2'
11 '-y+1/2, -x+1/2, z+1/2'
12 'y+1/2, x+1/2, z+1/2'
13 'x+1/2, -y+1/2, z+1/2'
14 '-x+1/2, y+1/2, z+1/2'
15 '-x+1/2, -y+1/2, z+1/2'
16 'x+1/2, y+1/2, z+1/2'
loop_
_atom_type_symbol
_atom_type_oxidation_number
Ba0+ 0
Pd0+ 0
Ge0+ 0
loop_
_atom_site_label
_atom_site_type_symbol
_atom_site_symmetry_multiplicity
_atom_site_Wyckoff_symbol
_atom_site_fract_x
_atom_site_fract_y
_atom_site_fract_z
_atom_site_B_iso_or_equiv
_atom_site_occupancy
_atom_site_attached_hydrogens
Ba1 Ba0+ 2 a 0 0 0.60480(2) . 1. 0
Pd1 Pd0+ 2 a 0 0 0.24991(6) . 1. 0
Ge1 Ge0+ 4 b 0 0.5 0.35681(6) . 1. 0
Ge2 Ge0+ 2 a 0 0 0.0000(1) . 1. 0
loop_
_atom_site_aniso_label
_atom_site_aniso_type_symbol
_atom_site_aniso_U_11
_atom_site_aniso_U_22
_atom_site_aniso_U_33
_atom_site_aniso_U_12
_atom_site_aniso_U_13
_atom_site_aniso_U_23
Ba1 Ba0+ 0.0078(1) 0.0078(1) 0.0074(2) 0 0 0
Pd1 Pd0+ 0.0074(1) 0.0074(1) 0.0073(2) 0 0 0
Ge1 Ge0+ 0.0118(2) 0.0073(2) 0.0070(2) 0 0 0
Ge2 Ge0+ 0.0092(2) 0.0092(2) 0.0086(3) 0 0 0
