
#(C) 2017 by FIZ Karlsruhe - Leibniz Institute for Information Infrastructure.  All rights reserved.
data_174220-ICSD
_database_code_ICSD 174220
_audit_creation_date 2010-08-01
_chemical_name_systematic 'Cobalt arsenide (1/2)'
_chemical_formula_structural 'Co As2'
_chemical_formula_sum 'As2 Co1'
_chemical_name_structure_type FeAsS-CoSb2
_exptl_crystal_density_diffrn 7.53
_publ_section_title 'Hochdruckexperimente an A B2-Phasen des Arsenopyrit-Typs'
loop_
_citation_id
_citation_journal_full
_citation_year
_citation_journal_volume
_citation_page_first
_citation_page_last
_citation_journal_id_ASTM
primary 'Dissertation Universitaet Freiburg/Breisgau' 2008 2008 1 108 DIFREZ
loop_
_publ_author_name
'Loesel, S.'
_cell_length_a 5.907(1)
_cell_length_b 5.858(1)
_cell_length_c 5.948(1)
_cell_angle_alpha 90
_cell_angle_beta 116.49(3)
_cell_angle_gamma 90
_cell_volume 184.21
_cell_formula_units_Z 4
_symmetry_space_group_name_H-M 'P 1 21/c 1'
_symmetry_Int_Tables_number 14
_refine_ls_R_factor_all 0.0655
loop_
_symmetry_equiv_pos_site_id
_symmetry_equiv_pos_as_xyz
1 'x, -y+1/2, z+1/2'
2 '-x, -y, -z'
3 '-x, y+1/2, -z+1/2'
4 'x, y, z'
loop_
_atom_type_symbol
_atom_type_oxidation_number
Co0+ 0
As0+ 0
loop_
_atom_site_label
_atom_site_type_symbol
_atom_site_symmetry_multiplicity
_atom_site_Wyckoff_symbol
_atom_site_fract_x
_atom_site_fract_y
_atom_site_fract_z
_atom_site_B_iso_or_equiv
_atom_site_occupancy
_atom_site_attached_hydrogens
Co1 Co0+ 4 e 0.2708(5) 0.0005(5) 0.2825(4) 0.0059(7) 1. 0
As1 As0+ 4 e 0.3415(4) 0.3652(3) 0.1749(3) 0.0064(6) 1. 0
As2 As0+ 4 e 0.1552(4) 0.6326(3) 0.3639(3) 0.0063(6) 1. 0
loop_
_atom_site_aniso_label
_atom_site_aniso_type_symbol
_atom_site_aniso_U_11
_atom_site_aniso_U_22
_atom_site_aniso_U_33
_atom_site_aniso_U_12
_atom_site_aniso_U_13
_atom_site_aniso_U_23
Co1 Co0+ 0.009(1) 0.005(1) 0.004(1) -0.001(1) 0.002(1) -0.001(1)
As1 As0+ 0.009(1) 0.005(1) 0.004(1) -0.001(1) 0.003(1) 0.001(1)
As2 As0+ 0.009(1) 0.005(1) 0.004(1) -0.001(1) 0.002(1) 0.000(1)
#End of TTdata_174220-ICSD