
data_174265-ICSD
_database_code_ICSD 174265
_audit_creation_date 2010-08-01
_chemical_name_systematic 'Barium rhodium germanide (1/1/3)'
_chemical_formula_structural 'Ba Rh Ge3'
_chemical_formula_sum 'Ba1 Ge3 Rh1'
_chemical_name_structure_type BaNiSn3
_exptl_crystal_density_diffrn 7.21
_cell_length_a 4.5240(3)
_cell_length_b 4.5240(3)
_cell_length_c 10.274(1)
_cell_angle_alpha 90.
_cell_angle_beta 90.
_cell_angle_gamma 90.
_cell_volume 210.27
_cell_formula_units_Z 2
_symmetry_space_group_name_H-M 'I 4 m m'
_symmetry_Int_Tables_number 107
_refine_ls_R_factor_all 0.057
loop_
_symmetry_equiv_pos_site_id
_symmetry_equiv_pos_as_xyz
1 '-y, x, z'
2 'y, -x, z'
3 '-y, -x, z'
4 'y, x, z'
5 'x, -y, z'
6 '-x, y, z'
7 '-x, -y, z'
8 'x, y, z'
9 '-y+1/2, x+1/2, z+1/2'
10 'y+1/2, -x+1/2, z+1/2'
11 '-y+1/2, -x+1/2, z+1/2'
12 'y+1/2, x+1/2, z+1/2'
13 'x+1/2, -y+1/2, z+1/2'
14 '-x+1/2, y+1/2, z+1/2'
15 '-x+1/2, -y+1/2, z+1/2'
16 'x+1/2, y+1/2, z+1/2'
loop_
_atom_type_symbol
_atom_type_oxidation_number
Ba0+ 0
Rh0+ 0
Ge0+ 0
loop_
_atom_site_label
_atom_site_type_symbol
_atom_site_symmetry_multiplicity
_atom_site_Wyckoff_symbol
_atom_site_fract_x
_atom_site_fract_y
_atom_site_fract_z
_atom_site_B_iso_or_equiv
_atom_site_occupancy
_atom_site_attached_hydrogens
Ba1 Ba0+ 2 a 0 0 0.5897(2) 0.14(4) 1. 0
Rh1 Rh0+ 2 a 0 0 0.2392(2) 0.44(4) 1. 0
Ge1 Ge0+ 2 a 0 0 0.0000(3) 1.52(6) 1. 0
Ge2 Ge0+ 4 b 0 0.5 0.3442(3) 0.53(3) 1. 0
