
#(C) 2017 by FIZ Karlsruhe - Leibniz Institute for Information Infrastructure.  All rights reserved.
data_174552-ICSD
_database_code_ICSD 174552
_audit_creation_date 2011-02-01
_chemical_name_systematic 'Lanthanum platinum germanide (1/4/12)'
_chemical_formula_structural 'La Pt4 Ge12'
_chemical_formula_sum 'Ge12 La1 Pt4'
_chemical_name_structure_type LaFe4P12
_exptl_crystal_density_diffrn 9.27
_publ_section_title

;
Filled platinum germanium skutterudites M Pt4 Ge12 (M = Sr, Ba, La-Nd, Sm,
Eu): crystal structure and chemical bonding
;
loop_
_citation_id
_citation_journal_full
_citation_year
_citation_journal_volume
_citation_page_first
_citation_page_last
_citation_journal_id_ASTM
primary 'Zeitschrift fuer Kristallographie - Crystalline Materials' 2010 225 531
543 ZKCMAJ
loop_
_publ_author_name
'Gumeniuk, R.'
'Borrmann, H.'
'Ormeci, A.'
'Rosner, H.'
'Schnelle, W.'
'Nicklas, M.'
'Grin', Yu.'
'Leithe Jasper, A.'
_cell_length_a 8.6235(3)
_cell_length_b 8.6235(3)
_cell_length_c 8.6235(3)
_cell_angle_alpha 90.
_cell_angle_beta 90.
_cell_angle_gamma 90.
_cell_volume 641.28
_cell_formula_units_Z 2
_symmetry_space_group_name_H-M 'I m -3'
_symmetry_Int_Tables_number 204
_refine_ls_R_factor_all 0.022
loop_
_symmetry_equiv_pos_site_id
_symmetry_equiv_pos_as_xyz
1 '-z, x, y'
2 'z, x, -y'
3 'z, -x, y'
4 '-z, -x, -y'
5 'y, -z, x'
6 '-y, z, x'
7 'y, z, -x'
8 '-y, -z, -x'
9 'x, y, -z'
10 'x, -y, z'
11 '-x, y, z'
12 '-x, -y, -z'
13 'z, -x, -y'
14 '-z, -x, y'
15 '-z, x, -y'
16 'z, x, y'
17 '-y, z, -x'
18 'y, -z, -x'
19 '-y, -z, x'
20 'y, z, x'
21 '-x, -y, z'
22 '-x, y, -z'
23 'x, -y, -z'
24 'x, y, z'
25 '-z+1/2, x+1/2, y+1/2'
26 'z+1/2, x+1/2, -y+1/2'
27 'z+1/2, -x+1/2, y+1/2'
28 '-z+1/2, -x+1/2, -y+1/2'
29 'y+1/2, -z+1/2, x+1/2'
30 '-y+1/2, z+1/2, x+1/2'
31 'y+1/2, z+1/2, -x+1/2'
32 '-y+1/2, -z+1/2, -x+1/2'
33 'x+1/2, y+1/2, -z+1/2'
34 'x+1/2, -y+1/2, z+1/2'
35 '-x+1/2, y+1/2, z+1/2'
36 '-x+1/2, -y+1/2, -z+1/2'
37 'z+1/2, -x+1/2, -y+1/2'
38 '-z+1/2, -x+1/2, y+1/2'
39 '-z+1/2, x+1/2, -y+1/2'
40 'z+1/2, x+1/2, y+1/2'
41 '-y+1/2, z+1/2, -x+1/2'
42 'y+1/2, -z+1/2, -x+1/2'
43 '-y+1/2, -z+1/2, x+1/2'
44 'y+1/2, z+1/2, x+1/2'
45 '-x+1/2, -y+1/2, z+1/2'
46 '-x+1/2, y+1/2, -z+1/2'
47 'x+1/2, -y+1/2, -z+1/2'
48 'x+1/2, y+1/2, z+1/2'
loop_
_atom_type_symbol
_atom_type_oxidation_number
La0+ 0
Pt0+ 0
Ge0+ 0
loop_
_atom_site_label
_atom_site_type_symbol
_atom_site_symmetry_multiplicity
_atom_site_Wyckoff_symbol
_atom_site_fract_x
_atom_site_fract_y
_atom_site_fract_z
_atom_site_B_iso_or_equiv
_atom_site_occupancy
_atom_site_attached_hydrogens
La1 La0+ 2 a 0 0 0 0.01212(7) 1. 0
Pt1 Pt0+ 8 c 0.25 0.25 0.25 0.00625(2) 1. 0
Ge1 Ge0+ 24 g 0 0.15173(3) 0.35497(3) 0.00873(4) 1. 0
loop_
_atom_site_aniso_label
_atom_site_aniso_type_symbol
_atom_site_aniso_U_11
_atom_site_aniso_U_22
_atom_site_aniso_U_33
_atom_site_aniso_U_12
_atom_site_aniso_U_13
_atom_site_aniso_U_23
La1 La0+ 0.01212(7) 0.01212(7) 0.01212(7) 0 0 0
Pt1 Pt0+ 0.00625(2) 0.00625(2) 0.00625(2) 0.00057(2) 0.00057(2) 0.00057(2)
Ge1 Ge0+ 0.00675(7) 0.01066(8) 0.00877(8) 0 0 0.00045(6)
#End of TTdata_174552-ICSD