
#(C) 2017 by FIZ Karlsruhe - Leibniz Institute for Information Infrastructure.  All rights reserved.
data_180009-ICSD
_database_code_ICSD 180009
_audit_creation_date 2011-08-01
_chemical_name_systematic 'Cadmium technetate'
_chemical_formula_structural 'Cd (Tc O3)'
_chemical_formula_sum 'Cd1 O3 Tc1'
_chemical_name_structure_type Perovskite-GdFeO3
_exptl_crystal_density_diffrn 7.59
_publ_section_title
'Preparation, magnetism and electronic structures of cadmium technetates'
loop_
_citation_id
_citation_journal_full
_citation_year
_citation_journal_volume
_citation_page_first
_citation_page_last
_citation_journal_id_ASTM
primary 'Journal of Materials Chemistry' 2011 21 1496 1502 JMACEP
loop_
_publ_author_name
'Rodriguez, E.E.'
'Poineau, F.'
'Llobet, A.'
'Thompson, J.D.'
'Seshadri, R.'
'Cheetham, A.K.'
_cell_length_a 5.38881(1)
_cell_length_b 5.46504(1)
_cell_length_c 7.71272
_cell_angle_alpha 90.
_cell_angle_beta 90.
_cell_angle_gamma 90.
_cell_volume 227.14
_cell_formula_units_Z 4
_symmetry_space_group_name_H-M 'P b n m'
_symmetry_Int_Tables_number 62
_refine_ls_R_factor_all 0.108
loop_
_symmetry_equiv_pos_site_id
_symmetry_equiv_pos_as_xyz
1 '-x+1/2, y+1/2, z'
2 'x, y, -z+1/2'
3 'x+1/2, -y+1/2, z+1/2'
4 '-x, -y, -z'
5 'x+1/2, -y+1/2, -z'
6 '-x, -y, z+1/2'
7 '-x+1/2, y+1/2, -z+1/2'
8 'x, y, z'
loop_
_atom_type_symbol
_atom_type_oxidation_number
Cd2+ 2
Tc4+ 4
O2- -2
loop_
_atom_site_label
_atom_site_type_symbol
_atom_site_symmetry_multiplicity
_atom_site_Wyckoff_symbol
_atom_site_fract_x
_atom_site_fract_y
_atom_site_fract_z
_atom_site_B_iso_or_equiv
_atom_site_occupancy
_atom_site_attached_hydrogens
Cd1 Cd2+ 4 c -0.0088(1) 0.04435(4) 0.25 0.0076(1) 1. 0
Tc1 Tc4+ 4 b 0.5 0 0 0.0023(1) 1. 0
O1 O2- 8 d 0.6844(4) 0.2987(4) 0.0551(3) 0.013(1) 1. 0
O2 O2- 4 c 0.098(1) 0.458(1) 0.25 0.008(1) 1. 0
#End of TTdata_180009-ICSD