
data_18010-ICSD
_database_code_ICSD 18010
_audit_creation_date 1986-10-17
_audit_update_record 2003-04-01
_chemical_name_systematic 'Tin(IV) iodide'
_chemical_formula_structural 'Sn I4'
_chemical_formula_sum 'I4 Sn1'
_exptl_crystal_density_diffrn 4.54
_cell_length_a 6.12(5)
_cell_length_b 6.12(5)
_cell_length_c 6.12(5)
_cell_angle_alpha 90.
_cell_angle_beta 90.
_cell_angle_gamma 90.
_cell_volume 229.22
_cell_formula_units_Z 1
_symmetry_space_group_name_H-M 'P 2 3'
_symmetry_Int_Tables_number 195
loop_
_symmetry_equiv_pos_site_id
_symmetry_equiv_pos_as_xyz
1 '-z, -x, y'
2 '-y, -z, x'
3 '-x, -y, z'
4 '-z, x, -y'
5 '-y, z, -x'
6 '-x, y, -z'
7 'z, -x, -y'
8 'y, -z, -x'
9 'x, -y, -z'
10 'z, x, y'
11 'y, z, x'
12 'x, y, z'
loop_
_atom_type_symbol
_atom_type_oxidation_number
Sn4+ 4
I1- -1
loop_
_atom_site_label
_atom_site_type_symbol
_atom_site_symmetry_multiplicity
_atom_site_Wyckoff_symbol
_atom_site_fract_x
_atom_site_fract_y
_atom_site_fract_z
_atom_site_B_iso_or_equiv
_atom_site_occupancy
_atom_site_attached_hydrogens
Sn1 Sn4+ 1 a 0 0 0 . 1. 0
I1 I1- 4 e 0.25 0.25 0.25 . 1. 0
