
#(C) 2017 by FIZ Karlsruhe - Leibniz Institute for Information Infrastructure.  All rights reserved.
data_182104-ICSD
_database_code_ICSD 182104
_audit_creation_date 2012-02-01
_chemical_name_systematic 'Strontium copper tin (1/4/2)'
_chemical_formula_structural 'Sr Cu4 Sn2'
_chemical_formula_sum 'Cu4 Sn2 Sr1'
_chemical_name_structure_type SrNi4Sn2
_exptl_crystal_density_diffrn 7.38
_publ_section_title
'Intermetallic compounds in the M - Cu - Sn systems with M = Eu, Sr, Ba'
loop_
_citation_id
_citation_journal_full
_citation_year
_citation_journal_volume
_citation_page_first
_citation_page_last
_citation_journal_id_ASTM
primary Intermetallics 2011 19 957 963 IERME5
loop_
_publ_author_name
'Pani, M.'
'Fornasini, M.L.'
'Manfrinetti, P.'
'Merlo, F.'
_cell_length_a 8.175(1)
_cell_length_b 8.175(1)
_cell_length_c 7.801(1)
_cell_angle_alpha 90.
_cell_angle_beta 90.
_cell_angle_gamma 90.
_cell_volume 521.35
_cell_formula_units_Z 4
_symmetry_space_group_name_H-M 'I 4/m c m'
_symmetry_Int_Tables_number 140
_refine_ls_R_factor_all 0.022
loop_
_symmetry_equiv_pos_site_id
_symmetry_equiv_pos_as_xyz
1 'y, x, -z+1/2'
2 '-y, -x, -z+1/2'
3 '-y, x, -z'
4 'y, -x, -z'
5 'x, -y, -z+1/2'
6 '-x, y, -z+1/2'
7 'x, y, -z'
8 '-x, -y, -z'
9 '-y, -x, z+1/2'
10 'y, x, z+1/2'
11 'y, -x, z'
12 '-y, x, z'
13 '-x, y, z+1/2'
14 'x, -y, z+1/2'
15 '-x, -y, z'
16 'x, y, z'
17 'y+1/2, x+1/2, -z'
18 '-y+1/2, -x+1/2, -z'
19 '-y+1/2, x+1/2, -z+1/2'
20 'y+1/2, -x+1/2, -z+1/2'
21 'x+1/2, -y+1/2, -z'
22 '-x+1/2, y+1/2, -z'
23 'x+1/2, y+1/2, -z+1/2'
24 '-x+1/2, -y+1/2, -z+1/2'
25 '-y+1/2, -x+1/2, z'
26 'y+1/2, x+1/2, z'
27 'y+1/2, -x+1/2, z+1/2'
28 '-y+1/2, x+1/2, z+1/2'
29 '-x+1/2, y+1/2, z'
30 'x+1/2, -y+1/2, z'
31 '-x+1/2, -y+1/2, z+1/2'
32 'x+1/2, y+1/2, z+1/2'
loop_
_atom_type_symbol
_atom_type_oxidation_number
Sr0+ 0
Cu0+ 0
Sn0+ 0
loop_
_atom_site_label
_atom_site_type_symbol
_atom_site_symmetry_multiplicity
_atom_site_Wyckoff_symbol
_atom_site_fract_x
_atom_site_fract_y
_atom_site_fract_z
_atom_site_B_iso_or_equiv
_atom_site_occupancy
_atom_site_attached_hydrogens
Sr1 Sr0+ 4 a 0 0 0.25 0.0100(3) 1. 0
Cu1 Cu0+ 16 l 0.13596(7) 0.63596(7) 0.16158(9) 0.0110(2) 1. 0
Sn1 Sn0+ 8 h 0.66087(6) 0.16087(6) 0 0.0082(2) 1. 0
#End of TTdata_182104-ICSD