
#(C) 2017 by FIZ Karlsruhe - Leibniz Institute for Information Infrastructure.  All rights reserved.
data_182945-ICSD
_database_code_ICSD 182945
_audit_creation_date 2012-08-01
_audit_update_record 2015-02-01
_chemical_name_systematic 'Iron sulfate fluoride'
_chemical_formula_structural 'Fe (S O4) F'
_chemical_formula_sum 'F1 Fe1 O4 S1'
_chemical_name_structure_type FeSO4F
_exptl_crystal_density_diffrn 3.4
_cell_measurement_temperature 2.
_publ_section_title

;
Magnetic structure and properties of the Li-ion battery materials Fe (S O4) F
and Li Fe (S O4) F
;
loop_
_citation_id
_citation_journal_full
_citation_year
_citation_journal_volume
_citation_page_first
_citation_page_last
_citation_journal_id_ASTM
primary 'Chemistry of Materials' 2011 23 2922 2930 CMATEX
loop_
_publ_author_name
'Melot, B.C.'
'Rousse, G.'
'Chotard, J.N.'
'Ati, M.'
'Rodriguez Carvajal, J.'
'Kemei, M.C.'
'Tarascon, J.M.'
_cell_length_a 7.365(1)
_cell_length_b 7.090(1)
_cell_length_c 7.368(1)
_cell_angle_alpha 90.
_cell_angle_beta 119.768(1)
_cell_angle_gamma 90.
_cell_volume 333.97
_cell_formula_units_Z 4
_symmetry_space_group_name_H-M 'C 1 2/c 1'
_symmetry_Int_Tables_number 15
_refine_ls_R_factor_all 0.23
loop_
_symmetry_equiv_pos_site_id
_symmetry_equiv_pos_as_xyz
1 'x, -y, z+1/2'
2 '-x, -y, -z'
3 '-x, y, -z+1/2'
4 'x, y, z'
5 'x+1/2, -y+1/2, z+1/2'
6 '-x+1/2, -y+1/2, -z'
7 '-x+1/2, y+1/2, -z+1/2'
8 'x+1/2, y+1/2, z'
loop_
_atom_type_symbol
_atom_type_oxidation_number
S6+ 6
Fe3+ 3
F1- -1
O2- -2
loop_
_atom_site_label
_atom_site_type_symbol
_atom_site_symmetry_multiplicity
_atom_site_Wyckoff_symbol
_atom_site_fract_x
_atom_site_fract_y
_atom_site_fract_z
_atom_site_B_iso_or_equiv
_atom_site_occupancy
_atom_site_attached_hydrogens
S1 S6+ 4 e 0 0.647(1) 0.25 . 1. 0
Fe1 Fe3+ 4 d 0.25 0.25 0.5 . 1. 0
F1 F1- 4 e 0 0.167(1) 0.25 . 1. 0
O1 O2- 8 f 0.338(1) 0.016(1) 0.084(1) . 1. 0
O2 O2- 8 f 0.412(1) 0.264(1) 0.346(1) . 1. 0
#End of TTdata_182945-ICSD