
data_183333-ICSD
_database_code_ICSD 183333
_audit_creation_date 2012-08-01
_chemical_name_systematic 'Yttrium palladium zinc (1/1/1) - alpha'
_chemical_formula_structural 'Y Pd Zn'
_chemical_formula_sum 'Pd1 Y1 Zn1'
_chemical_name_structure_type ZrNiAl-Fe2P
_exptl_crystal_density_diffrn 7.4
_cell_measurement_temperature 293.
_cell_length_a 7.254(1)
_cell_length_b 7.254(1)
_cell_length_c 3.8486(8)
_cell_angle_alpha 90.
_cell_angle_beta 90.
_cell_angle_gamma 120.
_cell_volume 175.38
_cell_formula_units_Z 3
_symmetry_space_group_name_H-M 'P -6 2 m'
_symmetry_Int_Tables_number 189
_refine_ls_R_factor_all 0.021
loop_
_symmetry_equiv_pos_site_id
_symmetry_equiv_pos_as_xyz
1 '-x, -x+y, -z'
2 'x-y, -y, -z'
3 'y, x, -z'
4 '-x, -x+y, z'
5 'x-y, -y, z'
6 'y, x, z'
7 '-x+y, -x, -z'
8 '-y, x-y, -z'
9 'x, y, -z'
10 '-x+y, -x, z'
11 '-y, x-y, z'
12 'x, y, z'
loop_
_atom_type_symbol
_atom_type_oxidation_number
Y0+ 0
Pd0+ 0
Zn0+ 0
loop_
_atom_site_label
_atom_site_type_symbol
_atom_site_symmetry_multiplicity
_atom_site_Wyckoff_symbol
_atom_site_fract_x
_atom_site_fract_y
_atom_site_fract_z
_atom_site_B_iso_or_equiv
_atom_site_occupancy
_atom_site_attached_hydrogens
Y1 Y0+ 3 f 0.40565(10) 0 0 0.0103(1) 1. 0
Pd1 Pd0+ 1 a 0 0 0 0.0138(1) 1. 0
Pd2 Pd0+ 2 d 0.6667 0.3333 0.5 0.0109(1) 1. 0
Zn1 Zn0+ 3 g 0.75063(11) 0 0.5 0.0126(1) 1. 0
