
#(C) 2017 by FIZ Karlsruhe - Leibniz Institute for Information Infrastructure.  All rights reserved.
data_183334-ICSD
_database_code_ICSD 183334
_audit_creation_date 2012-08-01
_chemical_name_systematic 'Yttrium palladium zinc (1/1/1) - beta'
_chemical_formula_structural 'Y Pd Zn'
_chemical_formula_sum 'Pd1 Y1 Zn1'
_chemical_name_structure_type TiNiSi-MgSrSi
_exptl_crystal_density_diffrn 7.45
_cell_measurement_temperature 293.
_publ_section_title 'Dimorphism in the RE Pd Zn series'
loop_
_citation_id
_citation_journal_full
_citation_year
_citation_journal_volume
_citation_page_first
_citation_page_last
_citation_journal_id_ASTM
primary Intermetallics 2012 20 110 114 IERME5
loop_
_publ_author_name
'Mishra, T.'
'Heymann, G.'
'Huppertz, H.'
'Poettgen, R.'
_cell_length_a 6.985(1)
_cell_length_b 4.0799(8)
_cell_length_c 8.152(2)
_cell_angle_alpha 90.
_cell_angle_beta 90.
_cell_angle_gamma 90.
_cell_volume 232.32
_cell_formula_units_Z 4
_symmetry_space_group_name_H-M 'P n m a'
_symmetry_Int_Tables_number 62
_refine_ls_R_factor_all 0.021
loop_
_symmetry_equiv_pos_site_id
_symmetry_equiv_pos_as_xyz
1 'x+1/2, y, -z+1/2'
2 'x, -y+1/2, z'
3 '-x+1/2, y+1/2, z+1/2'
4 '-x, -y, -z'
5 '-x+1/2, -y, z+1/2'
6 '-x, y+1/2, -z'
7 'x+1/2, -y+1/2, -z+1/2'
8 'x, y, z'
loop_
_atom_type_symbol
_atom_type_oxidation_number
Y0+ 0
Pd0+ 0
Zn0+ 0
loop_
_atom_site_label
_atom_site_type_symbol
_atom_site_symmetry_multiplicity
_atom_site_Wyckoff_symbol
_atom_site_fract_x
_atom_site_fract_y
_atom_site_fract_z
_atom_site_B_iso_or_equiv
_atom_site_occupancy
_atom_site_attached_hydrogens
Y1 Y0+ 4 c 0.04708(9) 0.25 0.68839(8) 0.0108(2) 1. 0
Pd1 Pd0+ 4 c 0.25070(8) 0.25 0.38048(6) 0.0112(2) 1. 0
Zn1 Zn0+ 4 c 0.63478(11) 0.25 0.43570(10) 0.0119(2) 1. 0
#End of TTdata_183334-ICSD