
#(C) 2017 by FIZ Karlsruhe - Leibniz Institute for Information Infrastructure.  All rights reserved.
data_183639-ICSD
_database_code_ICSD 183639
_audit_creation_date 2012-08-01
_chemical_name_systematic 'Potassium chromium oxide (2/8/16)'
_chemical_formula_structural 'K2 Cr8 O16'
_chemical_formula_sum 'Cr8 K2 O16'
_chemical_name_structure_type KRu4O8
_exptl_crystal_density_diffrn 4.48
_publ_section_title

;
Driving Curie temperature toward room temperature in the half-metallic
ferromagnet K2 Cr8 O16 by soft redox chemistry
;
loop_
_citation_id
_citation_journal_full
_citation_year
_citation_journal_volume
_citation_page_first
_citation_page_last
_citation_journal_id_ASTM
primary 'Dalton Transactions' 2012 41 1840 1847 DTARAF
loop_
_publ_author_name
'Pirrotta, I.'
'Fernandez-Sanjulian, J.'
'Moran, E.'
'Alario-Franco, M.A.'
'Gonzalo, E.'
'Kuhn, A.'
'Garcia-Alvarado, F.'
_cell_length_a 9.7471(4)
_cell_length_b 9.7471(4)
_cell_length_c 2.9292(6)
_cell_angle_alpha 90
_cell_angle_beta 90
_cell_angle_gamma 90
_cell_volume 278.29
_cell_formula_units_Z 1
_symmetry_space_group_name_H-M 'I 4/m'
_symmetry_Int_Tables_number 87
_refine_ls_R_factor_all 0.057
loop_
_symmetry_equiv_pos_site_id
_symmetry_equiv_pos_as_xyz
1 '-y, x, -z'
2 'y, -x, -z'
3 'x, y, -z'
4 '-x, -y, -z'
5 'y, -x, z'
6 '-y, x, z'
7 '-x, -y, z'
8 'x, y, z'
9 '-y+1/2, x+1/2, -z+1/2'
10 'y+1/2, -x+1/2, -z+1/2'
11 'x+1/2, y+1/2, -z+1/2'
12 '-x+1/2, -y+1/2, -z+1/2'
13 'y+1/2, -x+1/2, z+1/2'
14 '-y+1/2, x+1/2, z+1/2'
15 '-x+1/2, -y+1/2, z+1/2'
16 'x+1/2, y+1/2, z+1/2'
loop_
_atom_type_symbol
_atom_type_oxidation_number
K1+ 1
Cr3+ 3.75
O2- -2
loop_
_atom_site_label
_atom_site_type_symbol
_atom_site_symmetry_multiplicity
_atom_site_Wyckoff_symbol
_atom_site_fract_x
_atom_site_fract_y
_atom_site_fract_z
_atom_site_B_iso_or_equiv
_atom_site_occupancy
_atom_site_attached_hydrogens
K1 K1+ 2 b 0 0 0.5 2.182 1. 0
Cr1 Cr3+ 8 h 0.35143(46) 0.16800(49) 0 0.34 1. 0
O1 O2- 8 h 0.15745(41) 0.21040(44) 0 0.44 1. 0
O2 O2- 8 h 0.55494(45) 0.16320(34) 0 0.48 1. 0
loop_
_atom_site_aniso_label
_atom_site_aniso_type_symbol
_atom_site_aniso_beta_11
_atom_site_aniso_beta_22
_atom_site_aniso_beta_33
_atom_site_aniso_beta_12
_atom_site_aniso_beta_13
_atom_site_aniso_beta_23
K1 K1+ 0.47503 0.47503 0.6864 0. 0. 0.
#End of TTdata_183639-ICSD