
#(C) 2017 by FIZ Karlsruhe - Leibniz Institute for Information Infrastructure.  All rights reserved.
data_185289-ICSD
_database_code_ICSD 185289
_audit_creation_date 2013-02-01
_chemical_name_systematic 'Tantalum nitride (1/0.5)'
_chemical_formula_structural 'Ta N0.5'
_chemical_formula_sum 'N0.5 Ta1'
_chemical_name_structure_type CdI2
_exptl_crystal_density_diffrn 15.75
_publ_section_title

;
Structure refinement for tantalum nitrides nanocrystals with various
morphologies
;
loop_
_citation_id
_citation_journal_full
_citation_year
_citation_journal_volume
_citation_page_first
_citation_page_last
_citation_journal_id_ASTM
primary 'Materials Research Bulletin' 2012 47 1630 1635 MRBUAC
loop_
_publ_author_name
'Liu Lianyun'
'Huang Kai'
'Hou Jungang'
'Zhu Hongmin'
_cell_length_a 3.0484
_cell_length_b 3.0484
_cell_length_c 4.926
_cell_angle_alpha 90.
_cell_angle_beta 90.
_cell_angle_gamma 120.
_cell_volume 39.64
_cell_formula_units_Z 2
_symmetry_space_group_name_H-M 'P -3 m 1'
_symmetry_Int_Tables_number 164
_refine_ls_R_factor_all 0.0597
loop_
_symmetry_equiv_pos_site_id
_symmetry_equiv_pos_as_xyz
1 'x-y, -y, -z'
2 '-x, -x+y, -z'
3 'y, x, -z'
4 'x-y, x, -z'
5 'y, -x+y, -z'
6 '-x, -y, -z'
7 '-x+y, y, z'
8 'x, x-y, z'
9 '-y, -x, z'
10 '-x+y, -x, z'
11 '-y, x-y, z'
12 'x, y, z'
loop_
_atom_type_symbol
_atom_type_oxidation_number
Ta0+ 0
N0+ 0
loop_
_atom_site_label
_atom_site_type_symbol
_atom_site_symmetry_multiplicity
_atom_site_Wyckoff_symbol
_atom_site_fract_x
_atom_site_fract_y
_atom_site_fract_z
_atom_site_B_iso_or_equiv
_atom_site_occupancy
_atom_site_attached_hydrogens
Ta1 Ta0+ 2 d 0.3333 0.6667 0.25 . 1. 0
N1 N0+ 1 a 0 0 0 . 1. 0
#End of TTdata_185289-ICSD