
#(C) 2017 by FIZ Karlsruhe - Leibniz Institute for Information Infrastructure.  All rights reserved.
data_185291-ICSD
_database_code_ICSD 185291
_audit_creation_date 2013-02-01
_chemical_name_systematic
'Dirubidium hydrogen selenide lanthanum heptaoxodiniobate'
_chemical_formula_structural 'Rb2 (Se H) La (Nb2 O7)'
_chemical_formula_sum 'H1 La1 Nb2 O7 Rb2 Se1'
_chemical_name_structure_type Cs2LaNb2ClO7
_exptl_crystal_density_diffrn 4.85
_cell_measurement_temperature 293.
_publ_section_title

;
Room temperature oxidative intercalation with chalcogen hydrides: two-step
method for the formation of alkali-metal chalcogenide arrays within layered
perovskites
;
_publ_section_comment 'Cell and Type only determined'
loop_
_citation_id
_citation_journal_full
_citation_year
_citation_journal_volume
_citation_page_first
_citation_page_last
_citation_journal_id_ASTM
primary 'Materials Research Bulletin' 2012 47 1289 1294 MRBUAC
loop_
_publ_author_name
'Ranmohotti, K.G.S.'
'Montasserasadi, M.D.'
'Choi Jonglak'
'Yao Yuan'
'Mohanty, D.'
'Josepha, E.A.'
'Adireddy, S.'
'Caruntu, G.'
'Wiley, J.B.'
_cell_length_a 3.904(9)
_cell_length_b 3.904(9)
_cell_length_c 15.46(3)
_cell_angle_alpha 90.
_cell_angle_beta 90.
_cell_angle_gamma 90.
_cell_volume 235.63
_cell_formula_units_Z 1
_symmetry_space_group_name_H-M 'P 4/m m m'
_symmetry_Int_Tables_number 123
loop_
_symmetry_equiv_pos_site_id
_symmetry_equiv_pos_as_xyz
1 'y, x, -z'
2 '-y, -x, -z'
3 '-y, x, -z'
4 'y, -x, -z'
5 '-x, y, -z'
6 'x, -y, -z'
7 'x, y, -z'
8 '-x, -y, -z'
9 '-y, -x, z'
10 'y, x, z'
11 'y, -x, z'
12 '-y, x, z'
13 'x, -y, z'
14 '-x, y, z'
15 '-x, -y, z'
16 'x, y, z'
loop_
_atom_type_symbol
_atom_type_oxidation_number
Rb1+ 1
Se2- -2
La3+ 3
Nb5+ 5
O2- -2
H1+ 1
loop_
_atom_site_label
_atom_site_type_symbol
_atom_site_symmetry_multiplicity
_atom_site_Wyckoff_symbol
_atom_site_fract_x
_atom_site_fract_y
_atom_site_fract_z
_atom_site_B_iso_or_equiv
_atom_site_occupancy
_atom_site_attached_hydrogens
Rb1 Rb1+ 2 g 0 0 0.349 . 1. 0
Se1 Se2- 1 d 0.5 0.5 0.5 . 1. 0
La1 La3+ 1 a 0 0 0 . 1. 0
Nb1 Nb5+ 2 h 0.5 0.5 0.148 . 1. 0
O1 O2- 2 h 0.5 0.5 0.267 . 1. 0
O2 O2- 1 c 0.5 0.5 0 . 1. 0
O3 O2- 4 i 0 0.5 0.127 . 1. 0
#End of TTdata_185291-ICSD