
data_185362-ICSD
_database_code_ICSD 185362
_audit_creation_date 2013-02-01
_audit_update_record 2015-02-01
_chemical_name_systematic 'Dipotassium dimagnesium heptaoxodisilicate'
_chemical_formula_structural 'K2 Mg2 (Si2 O7)'
_chemical_formula_sum 'K2 Mg2 O7 Si2'
_chemical_name_structure_type K2Mg2Si2O7
_exptl_crystal_density_diffrn 3.33
_publ_section_title
'Crystal structure of anhydrous phase X, K1.93 (Mg2.02 Cr0.02) Si2.00 O7'
loop_
_citation_id
_citation_journal_full
_citation_year
_citation_journal_volume
_citation_page_first
_citation_page_last
_citation_journal_id_ASTM
primary 'Journal of Mineralogical and Petrological Sciences' 2010 105 303 308
JMPSCA
loop_
_publ_author_name
'Matsuzaki, T.'
'Hagiya, K.'
'Shatskiy, A.'
'Katsura, T.'
'Matsui, M.'
_cell_length_a 5.0756(1)
_cell_length_b 5.0756(1)
_cell_length_c 6.5969(2)
_cell_angle_alpha 90.
_cell_angle_beta 90.
_cell_angle_gamma 120.
_cell_volume 147.18
_cell_formula_units_Z 1
_symmetry_space_group_name_H-M 'P -3 1 m'
_symmetry_Int_Tables_number 162
_refine_ls_R_factor_all 0.042
loop_
_symmetry_equiv_pos_site_id
_symmetry_equiv_pos_as_xyz
1 '-x+y, y, -z'
2 'x, x-y, -z'
3 '-y, -x, -z'
4 'x-y, x, -z'
5 'y, -x+y, -z'
6 '-x, -y, -z'
7 'x-y, -y, z'
8 '-x, -x+y, z'
9 'y, x, z'
10 '-x+y, -x, z'
11 '-y, x-y, z'
12 'x, y, z'
loop_
_atom_type_symbol
_atom_type_oxidation_number
K1+ 1
Mg2+ 2
Si4+ 4
O2- -2
loop_
_atom_site_label
_atom_site_type_symbol
_atom_site_symmetry_multiplicity
_atom_site_Wyckoff_symbol
_atom_site_fract_x
_atom_site_fract_y
_atom_site_fract_z
_atom_site_B_iso_or_equiv
_atom_site_occupancy
_atom_site_attached_hydrogens
K1 K1+ 2 d 0.3333 0.6667 0.5 0.90(1) 1. 0
Mg1 Mg2+ 2 c 0.6667 0.3333 0 0.34(1) 1. 0
Si1 Si4+ 2 e 0 0 0.2435(1) 0.22(1) 1. 0
O1 O2- 1 b 0 0 0.5 0.58(3) 1. 0
O2 O2- 6 k 0.3101(3) 0 0.8186(2) 0.37(2) 1. 0
loop_
_atom_site_aniso_label
_atom_site_aniso_type_symbol
_atom_site_aniso_B_11
_atom_site_aniso_B_22
_atom_site_aniso_B_33
_atom_site_aniso_B_12
_atom_site_aniso_B_13
_atom_site_aniso_B_23
K1 K1+ 1.00(1) 1.00(1) 0.71(2) 0.500(5) 0. 0.
Mg1 Mg2+ 0.32(2) 0.32(2) 0.39(3) 0.16(1) 0. 0.
Si1 Si4+ 0.22(1) 0.22(1) 0.20(2) 0.110(5) 0. 0.
O1 O2- 0.76(6) 0.76(6) 0.22(7) 0.38(3) 0. 0.
O2 O2- 0.28(2) 0.42(3) 0.44(3) 0 -0.06(2) 0.
