
#(C) 2017 by FIZ Karlsruhe - Leibniz Institute for Information Infrastructure.  All rights reserved.
data_185809-ICSD
_database_code_ICSD 185809
_audit_creation_date 2013-02-01
_chemical_name_systematic 'Iron arsenide sulfide (1/1/1)'
_chemical_formula_structural 'Fe As S'
_chemical_formula_sum 'As1 Fe1 S1'
_chemical_name_structure_type FeAsS-CoSb2
_chemical_name_mineral Arsenopyrite
_exptl_crystal_density_diffrn 6.16
_cell_measurement_temperature 298.
_publ_section_title

;
Stoichiometric arsenopyrite, FeAsS, from La Roche-Balue quarry,
Loire-Atlantique, France: Crystal structure and Moessbauer study
;
loop_
_citation_id
_citation_journal_full
_citation_year
_citation_journal_volume
_citation_page_first
_citation_page_last
_citation_journal_id_ASTM
primary 'Canadian Mineralogist' 2012 50 471 479 CAMIA6
loop_
_publ_author_name
'Bindi, L.'
'Moelo, Y.'
'Leone, P.'
'Suchaud, M.'
_cell_length_a 5.7612(8)
_cell_length_b 5.6841(7)
_cell_length_c 5.7674(8)
_cell_angle_alpha 90
_cell_angle_beta 111.721(8)
_cell_angle_gamma 90
_cell_volume 175.46
_cell_formula_units_Z 4
_symmetry_space_group_name_H-M 'P 1 21/c 1'
_symmetry_Int_Tables_number 14
_refine_ls_R_factor_all 0.0298
loop_
_symmetry_equiv_pos_site_id
_symmetry_equiv_pos_as_xyz
1 'x, -y+1/2, z+1/2'
2 '-x, -y, -z'
3 '-x, y+1/2, -z+1/2'
4 'x, y, z'
loop_
_atom_type_symbol
_atom_type_oxidation_number
Fe2+ 2
As1- -1
S1- -1
loop_
_atom_site_label
_atom_site_type_symbol
_atom_site_symmetry_multiplicity
_atom_site_Wyckoff_symbol
_atom_site_fract_x
_atom_site_fract_y
_atom_site_fract_z
_atom_site_B_iso_or_equiv
_atom_site_occupancy
_atom_site_attached_hydrogens
Fe1 Fe2+ 4 e 0.28353(8) -0.00643(7) 0.29429(9) 0.0155(1) 1. 0
As1 As1- 4 e 0.14746(6) 0.13055(5) 0.86937(6) 0.0159(1) 1. 0
S1 S1- 4 e 0.6551(2) 0.1311(1) 0.3211(2) 0.0188(2) 1. 0
loop_
_atom_site_aniso_label
_atom_site_aniso_type_symbol
_atom_site_aniso_U_11
_atom_site_aniso_U_22
_atom_site_aniso_U_33
_atom_site_aniso_U_12
_atom_site_aniso_U_13
_atom_site_aniso_U_23
Fe1 Fe2+ 0.0155(2) 0.0152(2) 0.0159(2) 0.0004(1) 0.0059(1) 0.0003(2)
As1 As1- 0.0158(2) 0.0158(2) 0.0162(2) 0.0002(1) 0.0060(1) -0.0002(1)
S1 S1- 0.0177(4) 0.0188(3) 0.0201(4) -0.0004(3) 0.0072(3) 0.0001(3)
#End of TTdata_185809-ICSD