
#(C) 2017 by FIZ Karlsruhe - Leibniz Institute for Information Infrastructure.  All rights reserved.
data_185808-ICSD
_database_code_ICSD 185808
_audit_creation_date 2013-02-01
_chemical_name_systematic 'Diplatinum mercury triselenide'
_chemical_formula_structural 'Pt2 Hg Se3'
_chemical_formula_sum 'Hg1 Pt2 Se3'
_chemical_name_structure_type Tl2Pt4Te6
_chemical_name_mineral Jacutingaite
_exptl_crystal_density_diffrn 11.1
_publ_section_title

;
Jacutingaite, Pt2HgSe3, a new platinum-group mineral species from the Caue
iron-ore deposit, Itabira District, Minas Gerais, Brazil
;
loop_
_citation_id
_citation_journal_full
_citation_year
_citation_journal_volume
_citation_page_first
_citation_page_last
_citation_journal_id_ASTM
primary 'Canadian Mineralogist' 2012 50 431 440 CAMIA6
loop_
_publ_author_name
'Vymazalova, A.'
'Laufek, F.'
'Drabek, M.'
'Cabral, A.R.'
'Haloda, J.'
'Sidorinova, T.'
'Lehmann, B.'
'Galbiatti, H.F.'
'Drahokoupil, J.'
_cell_length_a 7.3477(2)
_cell_length_b 7.3477(2)
_cell_length_c 5.2955(1)
_cell_angle_alpha 90.
_cell_angle_beta 90.
_cell_angle_gamma 120.
_cell_volume 247.59
_cell_formula_units_Z 2
_symmetry_space_group_name_H-M 'P -3 m 1'
_symmetry_Int_Tables_number 164
_refine_ls_R_factor_all 0.076
loop_
_symmetry_equiv_pos_site_id
_symmetry_equiv_pos_as_xyz
1 'x-y, -y, -z'
2 '-x, -x+y, -z'
3 'y, x, -z'
4 'x-y, x, -z'
5 'y, -x+y, -z'
6 '-x, -y, -z'
7 '-x+y, y, z'
8 'x, x-y, z'
9 '-y, -x, z'
10 '-x+y, -x, z'
11 '-y, x-y, z'
12 'x, y, z'
loop_
_atom_type_symbol
_atom_type_oxidation_number
Pt2+ 2
Hg2+ 2
Se2- -2
loop_
_atom_site_label
_atom_site_type_symbol
_atom_site_symmetry_multiplicity
_atom_site_Wyckoff_symbol
_atom_site_fract_x
_atom_site_fract_y
_atom_site_fract_z
_atom_site_B_iso_or_equiv
_atom_site_occupancy
_atom_site_attached_hydrogens
Pt1 Pt2+ 1 a 0. 0. 0. 0.44(2) 1. 0
Pt2 Pt2+ 3 e 0.5 0. 0. 0.44(2) 1. 0
Hg1 Hg2+ 2 d 0.33333 0.66667 0.3507(3) 0.29(5) 1. 0
Se1 Se2- 6 i 0.8196(5) 0.1804(5) 0.2492(2) 0.63(5) 1. 0
#End of TTdata_185808-ICSD