
#(C) 2017 by FIZ Karlsruhe - Leibniz Institute for Information Infrastructure.  All rights reserved.
data_186940-ICSD
_database_code_ICSD 186940
_audit_creation_date 2013-08-01
_chemical_name_systematic 'Niobium germanium platinum (1/1/1)'
_chemical_formula_structural 'Nb Ge Pt'
_chemical_formula_sum 'Ge1 Nb1 Pt1'
_chemical_name_structure_type TiNiSi-MgSrSi
_exptl_crystal_density_diffrn 12.59
_publ_section_title
'Synthesis, crystal structure, and atomic interactions in Nb Ge Pt'
loop_
_citation_id
_citation_journal_full
_citation_year
_citation_journal_volume
_citation_page_first
_citation_page_last
_citation_journal_id_ASTM
primary 'Monatshefte fuer Chemie' 2012 143 1315 1319 MOCMB7
loop_
_publ_author_name
'Ackerbauer, Sarah-Virginia'
'Borrmann, Horst'
'Leithe-Jasper, Andreas'
'Grin, Yuri'
_cell_length_a 6.4487(3)
_cell_length_b 3.9300(2)
_cell_length_c 7.5065(4)
_cell_angle_alpha 90.
_cell_angle_beta 90.
_cell_angle_gamma 90.
_cell_volume 190.24
_cell_formula_units_Z 4
_symmetry_space_group_name_H-M 'P n m a'
_symmetry_Int_Tables_number 62
_refine_ls_R_factor_all 0.029
loop_
_symmetry_equiv_pos_site_id
_symmetry_equiv_pos_as_xyz
1 'x+1/2, y, -z+1/2'
2 'x, -y+1/2, z'
3 '-x+1/2, y+1/2, z+1/2'
4 '-x, -y, -z'
5 '-x+1/2, -y, z+1/2'
6 '-x, y+1/2, -z'
7 'x+1/2, -y+1/2, -z+1/2'
8 'x, y, z'
loop_
_atom_type_symbol
_atom_type_oxidation_number
Nb0+ 0
Pt0+ 0
Ge0+ 0
loop_
_atom_site_label
_atom_site_type_symbol
_atom_site_symmetry_multiplicity
_atom_site_Wyckoff_symbol
_atom_site_fract_x
_atom_site_fract_y
_atom_site_fract_z
_atom_site_B_iso_or_equiv
_atom_site_occupancy
_atom_site_attached_hydrogens
Nb1 Nb0+ 4 c 0.0275(1) 0.25 0.67219(9) 0.42(1) 1. 0
Pt1 Pt0+ 4 c 0.15294(5) 0.25 0.06381(4) 0.424(5) 1. 0
Ge1 Ge0+ 4 c 0.2623(2) 0.25 0.3759(2) 0.46(2) 1. 0
loop_
_atom_site_aniso_label
_atom_site_aniso_type_symbol
_atom_site_aniso_B_11
_atom_site_aniso_B_22
_atom_site_aniso_B_33
_atom_site_aniso_B_12
_atom_site_aniso_B_13
_atom_site_aniso_B_23
Nb1 Nb0+ 0.40(2) 0.44(2) 0.42(2) 0. 0.00(2) 0.
Pt1 Pt0+ 0.461(8) 0.411(8) 0.401(8) 0. 0.049(6) 0.
Ge1 Ge0+ 0.54(3) 0.37(2) 0.47(3) 0. -0.05(2) 0.
#End of TTdata_186940-ICSD