
#(C) 2017 by FIZ Karlsruhe - Leibniz Institute for Information Infrastructure.  All rights reserved.
data_187535-ICSD
_database_code_ICSD 187535
_audit_creation_date 2013-08-01
_chemical_name_systematic 'Cesium triselenodiferrate(II,III)'
_chemical_formula_structural 'Cs Fe2 Se3'
_chemical_formula_sum 'Cs1 Fe2 Se3'
_chemical_name_structure_type CsCu2Cl3
_exptl_crystal_density_diffrn 4.83
_cell_measurement_temperature 300.
_publ_section_title

;
Stripelike magnetism in a mixed-valence insulating state of the Fe-based
ladder compound Cs Fe2 Se3
;
loop_
_citation_id
_citation_journal_full
_citation_year
_citation_journal_volume
_citation_page_first
_citation_page_last
_citation_journal_id_ASTM
primary 'Physical Review, Serie 3. B - Condensed Matter (18,1978-)' 2012 85
214436-1 214436-5 PRBMDO
loop_
_publ_author_name
'Du, Fei'
'Ohgushi, Kenya'
'Nambu, Yusuke'
'Kawakami, Takateru'
'Avdeev, Maxim'
'Hirata, Yasuyuki'
'Watanabe, Yoshitaka'
'Sato, Taku J.'
'Ueda, Yutaka'
_cell_length_a 9.8426(2)
_cell_length_b 11.8297(3)
_cell_length_c 5.6904(1)
_cell_angle_alpha 90.
_cell_angle_beta 90.
_cell_angle_gamma 90.
_cell_volume 662.56
_cell_formula_units_Z 4
_symmetry_space_group_name_H-M 'C m c m'
_symmetry_Int_Tables_number 63
loop_
_symmetry_equiv_pos_site_id
_symmetry_equiv_pos_as_xyz
1 '-x, y, -z+1/2'
2 '-x, -y, z+1/2'
3 '-x, y, z'
4 '-x, -y, -z'
5 'x, -y, z+1/2'
6 'x, y, -z+1/2'
7 'x, -y, -z'
8 'x, y, z'
9 '-x+1/2, y+1/2, -z+1/2'
10 '-x+1/2, -y+1/2, z+1/2'
11 '-x+1/2, y+1/2, z'
12 '-x+1/2, -y+1/2, -z'
13 'x+1/2, -y+1/2, z+1/2'
14 'x+1/2, y+1/2, -z+1/2'
15 'x+1/2, -y+1/2, -z'
16 'x+1/2, y+1/2, z'
loop_
_atom_type_symbol
_atom_type_oxidation_number
Cs1+ 1
Fe2+ 2.5
Se2- -2
loop_
_atom_site_label
_atom_site_type_symbol
_atom_site_symmetry_multiplicity
_atom_site_Wyckoff_symbol
_atom_site_fract_x
_atom_site_fract_y
_atom_site_fract_z
_atom_site_B_iso_or_equiv
_atom_site_occupancy
_atom_site_attached_hydrogens
Cs1 Cs1+ 4 c 0.5 0.1618(5) 0.25 0.025(2) 1. 0
Fe1 Fe2+ 8 e 0.3601(3) 0.5 0 0.015(1) 1. 0
Se1 Se2- 4 c 0 0.1223(4) 0.25 0.025(2) 1. 0
Se2 Se2- 8 g 0.2272(3) 0.3882(3) 0.25 0.021(1) 1. 0
#End of TTdata_187535-ICSD