
data_188493-ICSD
_database_code_ICSD 188493
_audit_creation_date 2014-02-01
_chemical_name_systematic 'Dilithium phosphorus dioxide nitride'
_chemical_formula_structural 'Li2 (P O2 N)'
_chemical_formula_sum 'Li2 N1 O2 P1'
_chemical_name_structure_type Na2SiO3
_exptl_crystal_density_diffrn 2.63
_cell_length_a 9.0692(4)
_cell_length_b 5.3999(2)
_cell_length_c 4.6856(2)
_cell_angle_alpha 90.
_cell_angle_beta 90.
_cell_angle_gamma 90.
_cell_volume 229.47
_cell_formula_units_Z 4
_symmetry_space_group_name_H-M 'C m c 21'
_symmetry_Int_Tables_number 36
_refine_ls_R_factor_all 0.0553
loop_
_symmetry_equiv_pos_site_id
_symmetry_equiv_pos_as_xyz
1 'x, -y, z+1/2'
2 '-x, -y, z+1/2'
3 '-x, y, z'
4 'x, y, z'
5 'x+1/2, -y+1/2, z+1/2'
6 '-x+1/2, -y+1/2, z+1/2'
7 '-x+1/2, y+1/2, z'
8 'x+1/2, y+1/2, z'
loop_
_atom_type_symbol
_atom_type_oxidation_number
Li1+ 1
P5+ 5
O2- -2
N3- -3
loop_
_atom_site_label
_atom_site_type_symbol
_atom_site_symmetry_multiplicity
_atom_site_Wyckoff_symbol
_atom_site_fract_x
_atom_site_fract_y
_atom_site_fract_z
_atom_site_B_iso_or_equiv
_atom_site_occupancy
_atom_site_attached_hydrogens
Li1 Li1+ 8 b 0.3281(7) 0.362(2) 0.983(5) . 1. 0
P1 P5+ 4 a 0 0.3414(3) 0 . 1. 0
O1 O2- 8 b 0.3518(3) 0.6914(5) 0.919(1) . 1. 0
N1 N3- 4 a 0 0.631(1) 0.854(2) . 1. 0
