
#(C) 2017 by FIZ Karlsruhe - Leibniz Institute for Information Infrastructure.  All rights reserved.
data_188904-ICSD
_database_code_ICSD 188904
_audit_creation_date 2014-02-01
_chemical_name_systematic 'Manganese tungstate'
_chemical_formula_structural 'Mn (W O4)'
_chemical_formula_sum 'Mn1 O4 W1'
_chemical_name_structure_type Wolframite-NiWO4
_exptl_crystal_density_diffrn 7.24
_cell_measurement_temperature 9.
_publ_section_title

;
Incommensurate magnetic structures of multiferroic Mn W O4 studied within the
superspace formalism
;
loop_
_citation_id
_citation_journal_full
_citation_year
_citation_journal_volume
_citation_page_first
_citation_page_last
_citation_journal_id_ASTM
primary 'Physical Review, Serie 3. B - Condensed Matter (18,1978-)' 2013 87
014419-1 014419-10 PRBMDO
loop_
_publ_author_name
'Urcelay-Olabarria, I.'
'Perez-Mato, J.M.'
'Ribeiro, J.L.'
'Garcia-Munoz, J.L.'
'Ressouche, E.'
'Skumryev, V.'
'Mukhin, A.A.'
_cell_length_a 4.8237(7)
_cell_length_b 5.7552(2)
_cell_length_c 5.0019(2)
_cell_angle_alpha 90.
_cell_angle_beta 91.0838(7)
_cell_angle_gamma 90.
_cell_volume 138.83
_cell_formula_units_Z 2
_symmetry_space_group_name_H-M 'P 1 2/c 1'
_symmetry_Int_Tables_number 13
_refine_ls_R_factor_all 0.028
loop_
_symmetry_equiv_pos_site_id
_symmetry_equiv_pos_as_xyz
1 'x, -y, z+1/2'
2 '-x, -y, -z'
3 '-x, y, -z+1/2'
4 'x, y, z'
loop_
_atom_type_symbol
_atom_type_oxidation_number
Mn2+ 2
W6+ 6
O2- -2
loop_
_atom_site_label
_atom_site_type_symbol
_atom_site_symmetry_multiplicity
_atom_site_Wyckoff_symbol
_atom_site_fract_x
_atom_site_fract_y
_atom_site_fract_z
_atom_site_B_iso_or_equiv
_atom_site_occupancy
_atom_site_attached_hydrogens
Mn1 Mn2+ 2 f 0.5 0.6849(6) 0.25 0.3(1) 1. 0
W1 W6+ 2 e 0 0.1798(5) 0.25 0.2(1) 1. 0
O1 O2- 4 g 0.2105(3) 0.1024(2) 0.9412(7) 0.2(1) 1. 0
O2 O2- 4 g 0.2503(4) 0.3744(2) 0.3938(6) 0.2(1) 1. 0
#End of TTdata_188904-ICSD