
data_188999-ICSD
_database_code_ICSD 188999
_audit_creation_date 2014-02-01
_chemical_name_systematic 'Copper vanadium sulfide (1/2/4)'
_chemical_formula_structural 'Cu V2 S4'
_chemical_formula_sum 'Cu1 S4 V2'
_exptl_crystal_density_diffrn 4.13
_cell_measurement_temperature 70.
_cell_length_a 6.9477(1)
_cell_length_b 6.9416(1)
_cell_length_c 9.8011(1)
_cell_angle_alpha 90.
_cell_angle_beta 90.
_cell_angle_gamma 90.
_cell_volume 472.69
_cell_formula_units_Z 4
_symmetry_space_group_name_H-M 'I m m 2'
_symmetry_Int_Tables_number 44
_refine_ls_R_factor_all 0.0182
loop_
_symmetry_equiv_pos_site_id
_symmetry_equiv_pos_as_xyz
1 'x, -y, z'
2 '-x, y, z'
3 '-x, -y, z'
4 'x, y, z'
5 'x+1/2, -y+1/2, z+1/2'
6 '-x+1/2, y+1/2, z+1/2'
7 '-x+1/2, -y+1/2, z+1/2'
8 'x+1/2, y+1/2, z+1/2'
loop_
_atom_type_symbol
_atom_type_oxidation_number
Cu1+ 1
V3+ 3.5
S2- -2
loop_
_atom_site_label
_atom_site_type_symbol
_atom_site_symmetry_multiplicity
_atom_site_Wyckoff_symbol
_atom_site_fract_x
_atom_site_fract_y
_atom_site_fract_z
_atom_site_B_iso_or_equiv
_atom_site_occupancy
_atom_site_attached_hydrogens
Cu1 Cu1+ 2 a 0 0 0.875 0.0071(2) 1. 0
Cu2 Cu1+ 2 b 0 0.5 0.127(1) 0.0071(2) 1. 0
V1 V3+ 4 c 0.250(4) 0 0.250(3) 0.0027(6) 1. 0
V2 V3+ 4 d 0 0.252(3) 0.500(3) 0.0027(6) 1. 0
S1 S2- 4 c 0.267(3) 0 0.003(3) 0.0007(8) 1. 0
S2 S2- 4 c 0.235(4) 0 0.494(3) 0.0007(8) 1. 0
S3 S2- 4 d 0 0.238(2) 0.254(3) 0.0007(8) 1. 0
S4 S2- 4 d 0 0.742(3) 0.742(3) 0.0007(8) 1. 0
