
#(C) 2017 by FIZ Karlsruhe - Leibniz Institute for Information Infrastructure.  All rights reserved.
data_189363-ICSD
_database_code_ICSD 189363
_audit_creation_date 2014-02-01
_chemical_name_systematic 'Barium iridium germanide (3/4/16)'
_chemical_formula_structural 'Ba3 Ir4 Ge16'
_chemical_formula_sum 'Ba3 Ge16 Ir4'
_exptl_crystal_density_diffrn 8.18
_cell_measurement_temperature 293.
_publ_section_title

;
Clathrate formation in the systems Ba - Ir - Ge and Ba - {Rh, Ir} - Si:
Crystal chemistry and phase relations
;
loop_
_citation_id
_citation_journal_full
_citation_year
_citation_journal_volume
_citation_page_first
_citation_page_last
_citation_journal_id_ASTM
primary Intermetallics 2013 36 61 72 IERME5
loop_
_publ_author_name
'Falmbigl, M.'
'Grytsiv, A.'
'Rogl, P.'
'Giester, G.'
_cell_length_a 6.53948(6)
_cell_length_b 6.53948(6)
_cell_length_c 22.2849(3)
_cell_angle_alpha 90.
_cell_angle_beta 90.
_cell_angle_gamma 90.
_cell_volume 953.01
_cell_formula_units_Z 2
_symmetry_space_group_name_H-M 'I 4/m m m'
_symmetry_Int_Tables_number 139
_refine_ls_R_factor_all 0.0388
loop_
_symmetry_equiv_pos_site_id
_symmetry_equiv_pos_as_xyz
1 'y, x, -z'
2 '-y, -x, -z'
3 '-y, x, -z'
4 'y, -x, -z'
5 '-x, y, -z'
6 'x, -y, -z'
7 'x, y, -z'
8 '-x, -y, -z'
9 '-y, -x, z'
10 'y, x, z'
11 'y, -x, z'
12 '-y, x, z'
13 'x, -y, z'
14 '-x, y, z'
15 '-x, -y, z'
16 'x, y, z'
17 'y+1/2, x+1/2, -z+1/2'
18 '-y+1/2, -x+1/2, -z+1/2'
19 '-y+1/2, x+1/2, -z+1/2'
20 'y+1/2, -x+1/2, -z+1/2'
21 '-x+1/2, y+1/2, -z+1/2'
22 'x+1/2, -y+1/2, -z+1/2'
23 'x+1/2, y+1/2, -z+1/2'
24 '-x+1/2, -y+1/2, -z+1/2'
25 '-y+1/2, -x+1/2, z+1/2'
26 'y+1/2, x+1/2, z+1/2'
27 'y+1/2, -x+1/2, z+1/2'
28 '-y+1/2, x+1/2, z+1/2'
29 'x+1/2, -y+1/2, z+1/2'
30 '-x+1/2, y+1/2, z+1/2'
31 '-x+1/2, -y+1/2, z+1/2'
32 'x+1/2, y+1/2, z+1/2'
loop_
_atom_type_symbol
_atom_type_oxidation_number
Ge0+ 0
Ir0+ 0
Ba0+ 0
loop_
_atom_site_label
_atom_site_type_symbol
_atom_site_symmetry_multiplicity
_atom_site_Wyckoff_symbol
_atom_site_fract_x
_atom_site_fract_y
_atom_site_fract_z
_atom_site_B_iso_or_equiv
_atom_site_occupancy
_atom_site_attached_hydrogens
Ge1 Ge0+ 16 m 0.2497(3) 0.2497(3) 0.12898(4) 0.18(2) 1. 0
Ge2 Ge0+ 8 j 0.2293(3) 0.5 0 1.40(6) 1. 0
Ge3 Ge0+ 4 e 0 0 0.1957(1) -0.23(6) 1. 0
Ge4 Ge0+ 4 e 0 0 0.3071(2) 0.61(9) 1. 0
Ir1 Ir0+ 8 g 0 0.5 0.08980(3) 0.01(2) 1. 0
Ba1 Ba0+ 4 d 0 0.5 0.25 0.08(3) 1. 0
Ba2 Ba0+ 2 a 0 0 0 1.08(6) 1. 0
#End of TTdata_189363-ICSD