
#(C) 2017 by FIZ Karlsruhe - Leibniz Institute for Information Infrastructure.  All rights reserved.
data_190774-ICSD
_database_code_ICSD 190774
_audit_creation_date 2014-08-01
_chemical_name_systematic 'Nickel oxalate'
_chemical_formula_structural 'Ni (C2 O4)'
_chemical_formula_sum 'C2 Ni1 O4'
_exptl_crystal_density_diffrn 2.81
_cell_measurement_temperature 523.
_publ_section_title

;
Crystal structure, electronic structure, and bonding properties of anhydrous
nickel oxalate
;
loop_
_citation_id
_citation_journal_full
_citation_year
_citation_journal_volume
_citation_page_first
_citation_page_last
_citation_journal_id_ASTM
primary 'Journal of Thermal Analysis and Calorimetry' 2013 113 319 328 JTACF7
loop_
_publ_author_name
'Kolezynski, Andrzej'
'Handke, Bartosz'
'Drozdz-Ciesla, Ewa'
_cell_length_a 5.217(9)
_cell_length_b 5.477(4)
_cell_length_c 6.921(4)
_cell_angle_alpha 90.
_cell_angle_beta 118.65(7)
_cell_angle_gamma 90.
_cell_volume 173.54
_cell_formula_units_Z 2
_symmetry_space_group_name_H-M 'P 1 21/c 1'
_symmetry_Int_Tables_number 14
loop_
_symmetry_equiv_pos_site_id
_symmetry_equiv_pos_as_xyz
1 'x, -y+1/2, z+1/2'
2 '-x, -y, -z'
3 '-x, y+1/2, -z+1/2'
4 'x, y, z'
loop_
_atom_type_symbol
_atom_type_oxidation_number
Ni2+ 2
O2- -2
C3+ 3
loop_
_atom_site_label
_atom_site_type_symbol
_atom_site_symmetry_multiplicity
_atom_site_Wyckoff_symbol
_atom_site_fract_x
_atom_site_fract_y
_atom_site_fract_z
_atom_site_B_iso_or_equiv
_atom_site_occupancy
_atom_site_attached_hydrogens
Ni1 Ni2+ 2 a 0 0 0 . 1. 0
O1 O2- 4 e 0.211 0.1954 0.3896 . 1. 0
O2 O2- 4 e 0.3732 0.7695 0.2625 . 1. 0
C1 C3+ 4 e 0.5451 0.8782 0.4619 . 1. 0
#End of TTdata_190774-ICSD