
#(C) 2017 by FIZ Karlsruhe - Leibniz Institute for Information Infrastructure.  All rights reserved.
data_191475-ICSD
_database_code_ICSD 191475
_audit_creation_date 2014-08-01
_chemical_name_systematic 'Lanthanum palladium indium (11/4/9)'
_chemical_formula_structural 'La11 Pd4 In9'
_chemical_formula_sum 'In9 La11 Pd4'
_chemical_name_structure_type La11Ni4In9
_exptl_crystal_density_diffrn 7.47
_cell_measurement_temperature 293.
_publ_section_title

;
New compounds with Nd11 Pd4 In9 structure type in the systems RE - Pd - In (RE
= La, Ce, Pr, Nd, Sm, Gd, Tb, Dy)
;
loop_
_citation_id
_citation_journal_full
_citation_year
_citation_journal_volume
_citation_page_first
_citation_page_last
_citation_journal_id_ASTM
primary Intermetallics 2014 49 14 17 IERME5
loop_
_publ_author_name
'Sojka, L.'
'Demchyna, M.'
'Belan, B.'
'Manyako, M.'
'Kalychak, Ya.'
_cell_length_a 15.581(5)
_cell_length_b 22.606(8)
_cell_length_c 3.767(1)
_cell_angle_alpha 90.
_cell_angle_beta 90.
_cell_angle_gamma 90.
_cell_volume 1326.83
_cell_formula_units_Z 2
_symmetry_space_group_name_H-M 'C m m m'
_symmetry_Int_Tables_number 65
_refine_ls_R_factor_all 0.0336
loop_
_symmetry_equiv_pos_site_id
_symmetry_equiv_pos_as_xyz
1 'x, -y, z'
2 '-x, y, z'
3 'x, y, -z'
4 '-x, -y, -z'
5 '-x, y, -z'
6 'x, -y, -z'
7 '-x, -y, z'
8 'x, y, z'
9 'x+1/2, -y+1/2, z'
10 '-x+1/2, y+1/2, z'
11 'x+1/2, y+1/2, -z'
12 '-x+1/2, -y+1/2, -z'
13 '-x+1/2, y+1/2, -z'
14 'x+1/2, -y+1/2, -z'
15 '-x+1/2, -y+1/2, z'
16 'x+1/2, y+1/2, z'
loop_
_atom_type_symbol
_atom_type_oxidation_number
La0+ 0
Pd0+ 0
In0+ 0
loop_
_atom_site_label
_atom_site_type_symbol
_atom_site_symmetry_multiplicity
_atom_site_Wyckoff_symbol
_atom_site_fract_x
_atom_site_fract_y
_atom_site_fract_z
_atom_site_B_iso_or_equiv
_atom_site_occupancy
_atom_site_attached_hydrogens
La1 La0+ 8 p 0.212(1) 0.162(1) 0 . 1. 0
La2 La0+ 4 i 0 0.161(2) 0 . 1. 0
La3 La0+ 4 i 0 0.380(2) 0 . 1. 0
La4 La0+ 4 g 0.283(2) 0 0 . 1. 0
La5 La0+ 2 a 0 0 0 . 1. 0
Pd1 Pd0+ 8 q 0.368(2) 0.091(1) 0.5 . 1. 0
In1 In0+ 8 q 0.095(2) 0.284(1) 0.5 . 1. 0
In2 In0+ 8 q 0.139(3) 0.071(1) 0.5 . 1. 0
In3 In0+ 2 c 0.5 0 0.5 . 1. 0
#End of TTdata_191475-ICSD