
#(C) 2017 by FIZ Karlsruhe - Leibniz Institute for Information Infrastructure.  All rights reserved.
data_191900-ICSD
_database_code_ICSD 191900
_audit_creation_date 2015-02-01
_chemical_name_systematic 'Niobium boride (5/6)'
_chemical_formula_structural 'Nb5 B6'
_chemical_formula_sum 'B6 Nb5'
_exptl_crystal_density_diffrn 7.42
_cell_measurement_temperature 293.
_publ_section_title

;
Transition metal borides: synthesis, characterization and superconducting
properties
;
loop_
_citation_id
_citation_journal_full
_citation_year
_citation_journal_volume
_citation_page_first
_citation_page_last
_citation_journal_id_ASTM
primary 'Dissertation TH Darmstadt' 2013 2013 1 127 DIDARL
loop_
_publ_author_name
'Kayhan, Mehmet'
_cell_length_a 22.771(1)
_cell_length_b 3.1538(1)
_cell_length_c 3.3014(1)
_cell_angle_alpha 90.
_cell_angle_beta 90.
_cell_angle_gamma 90.
_cell_volume 237.09
_cell_formula_units_Z 2
_symmetry_space_group_name_H-M 'C m m m'
_symmetry_Int_Tables_number 65
_refine_ls_R_factor_all 0.03
loop_
_symmetry_equiv_pos_site_id
_symmetry_equiv_pos_as_xyz
1 'x, -y, z'
2 '-x, y, z'
3 'x, y, -z'
4 '-x, -y, -z'
5 '-x, y, -z'
6 'x, -y, -z'
7 '-x, -y, z'
8 'x, y, z'
9 'x+1/2, -y+1/2, z'
10 '-x+1/2, y+1/2, z'
11 'x+1/2, y+1/2, -z'
12 '-x+1/2, -y+1/2, -z'
13 '-x+1/2, y+1/2, -z'
14 'x+1/2, -y+1/2, -z'
15 '-x+1/2, -y+1/2, z'
16 'x+1/2, y+1/2, z'
loop_
_atom_type_symbol
_atom_type_oxidation_number
Nb0+ 0
B0+ 0
loop_
_atom_site_label
_atom_site_type_symbol
_atom_site_symmetry_multiplicity
_atom_site_Wyckoff_symbol
_atom_site_fract_x
_atom_site_fract_y
_atom_site_fract_z
_atom_site_B_iso_or_equiv
_atom_site_occupancy
_atom_site_attached_hydrogens
Nb1 Nb0+ 2 a 0 0 0 0.35(6) 1. 0
Nb2 Nb0+ 4 g 0.3851(1) 0 0 0.30(4) 1. 0
Nb3 Nb0+ 4 h 0.1935(1) 0 0.5 0.18(5) 1. 0
B1 B0+ 4 h 0.089(2) 0 0.5 0.4(2) 1. 0
B2 B0+ 4 g 0.281(2) 0 0 0.4(2) 1. 0
B3 B0+ 4 h 0.461(1) 0 0.5 0.4(2) 1. 0
#End of TTdata_191900-ICSD