
#(C) 2017 by FIZ Karlsruhe - Leibniz Institute for Information Infrastructure.  All rights reserved.
data_192087-ICSD
_database_code_ICSD 192087
_audit_creation_date 2015-02-01
_chemical_name_systematic 'Magnesium gold gallium (1/2/1)'
_chemical_formula_structural 'Mg Au2 Ga'
_chemical_formula_sum 'Au2 Ga1 Mg1'
_chemical_name_structure_type CeLi2Ge
_exptl_crystal_density_diffrn 11.31
_cell_measurement_temperature 297.
_publ_section_title
'Mg Au Ga and Mg Au2 Ga: first representatives of the Mg - Au - Ga system'
loop_
_citation_id
_citation_journal_full
_citation_year
_citation_journal_volume
_citation_page_first
_citation_page_last
_citation_journal_id_ASTM
primary 'Acta Crystallographica, Section C: Structural Chemistry' 2014 70 355
358 ACSCGG
loop_
_publ_author_name
'Smetana, Volodymyr'
'Corbett, John D.'
'Miller, Gordon J.'
_cell_length_a 4.4015(3)
_cell_length_b 4.4015(3)
_cell_length_c 8.5398(7)
_cell_angle_alpha 90.
_cell_angle_beta 90.
_cell_angle_gamma 120.
_cell_volume 143.27
_cell_formula_units_Z 2
_symmetry_space_group_name_H-M 'P 63/m m c'
_symmetry_Int_Tables_number 194
_refine_ls_R_factor_all 0.0229
loop_
_symmetry_equiv_pos_site_id
_symmetry_equiv_pos_as_xyz
1 'x, x-y, -z+1/2'
2 '-x+y, y, -z+1/2'
3 '-y, -x, -z+1/2'
4 '-x+y, -x, -z+1/2'
5 '-y, x-y, -z+1/2'
6 'x, y, -z+1/2'
7 '-x, -x+y, z+1/2'
8 'x-y, -y, z+1/2'
9 'y, x, z+1/2'
10 'x-y, x, z+1/2'
11 'y, -x+y, z+1/2'
12 '-x, -y, z+1/2'
13 '-x, -x+y, -z'
14 'x-y, -y, -z'
15 'y, x, -z'
16 'x-y, x, -z'
17 'y, -x+y, -z'
18 '-x, -y, -z'
19 'x, x-y, z'
20 '-x+y, y, z'
21 '-y, -x, z'
22 '-x+y, -x, z'
23 '-y, x-y, z'
24 'x, y, z'
loop_
_atom_type_symbol
_atom_type_oxidation_number
Au0+ 0
Mg0+ 0
Ga0+ 0
loop_
_atom_site_label
_atom_site_type_symbol
_atom_site_symmetry_multiplicity
_atom_site_Wyckoff_symbol
_atom_site_fract_x
_atom_site_fract_y
_atom_site_fract_z
_atom_site_B_iso_or_equiv
_atom_site_occupancy
_atom_site_attached_hydrogens
Au1 Au0+ 4 f 0.3333 0.6667 0.08837(7) 0.0069(2) 1 0
Mg1 Mg0+ 2 d 0.6667 0.3333 0.25 0.016(2) 1 0
Ga1 Ga0+ 2 a 0. 0. 0. 0.0105(5) 1 0
loop_
_atom_site_aniso_label
_atom_site_aniso_type_symbol
_atom_site_aniso_U_11
_atom_site_aniso_U_22
_atom_site_aniso_U_33
_atom_site_aniso_U_12
_atom_site_aniso_U_13
_atom_site_aniso_U_23
Au1 Au0+ 0.0063(2) 0.0063(2) 0.0082(3) 0.00314(12) 0. 0.
Mg1 Mg0+ 0.019(3) 0.019(3) 0.009(4) 0.0097(16) 0. 0.
Ga1 Ga0+ 0.0047(7) 0.0047(7) 0.0221(12) 0.0023(4) 0. 0.
#End of TTdata_192087-ICSD