
#(C) 2017 by FIZ Karlsruhe - Leibniz Institute for Information Infrastructure.  All rights reserved.
data_192272-ICSD
_database_code_ICSD 192272
_audit_creation_date 2015-02-01
_audit_update_record 2016-02-01
_chemical_name_systematic 'Tantalum oxide nitride'
_chemical_formula_structural 'Ta O N'
_chemical_formula_sum 'N1 O1 Ta1'
_chemical_name_structure_type TaON
_exptl_crystal_density_diffrn 8.76
_publ_section_title

;
Hierarchical metastable gamma - Ta O N hollow structures for efficient
visible-light water splitting
;
loop_
_citation_id
_citation_journal_full
_citation_year
_citation_journal_volume
_citation_page_first
_citation_page_last
_citation_journal_id_ASTM
primary 'Energy & Environmental Science' 2013 6 2134 2144 EESNBY
loop_
_publ_author_name
'Wang, Zheng'
'Hou, Jungang'
'Yang, Chao'
'Jiao, Shuqiang'
'Huang, Kai'
'Zhu, Hongmin'
_cell_length_a 12.9224(25)
_cell_length_b 3.8662(75)
_cell_length_c 6.7089(17)
_cell_angle_alpha 90.
_cell_angle_beta 107.425(13)
_cell_angle_gamma 90.
_cell_volume 319.8
_cell_formula_units_Z 8
_symmetry_space_group_name_H-M 'C 1 2/m 1'
_symmetry_Int_Tables_number 12
_refine_ls_R_factor_all 0.0293
loop_
_symmetry_equiv_pos_site_id
_symmetry_equiv_pos_as_xyz
1 '-x, y, -z'
2 '-x, -y, -z'
3 'x, -y, z'
4 'x, y, z'
5 '-x+1/2, y+1/2, -z'
6 '-x+1/2, -y+1/2, -z'
7 'x+1/2, -y+1/2, z'
8 'x+1/2, y+1/2, z'
loop_
_atom_type_symbol
_atom_type_oxidation_number
Ta5+ 5
O2- -2
N3- -3
loop_
_atom_site_label
_atom_site_type_symbol
_atom_site_symmetry_multiplicity
_atom_site_Wyckoff_symbol
_atom_site_fract_x
_atom_site_fract_y
_atom_site_fract_z
_atom_site_B_iso_or_equiv
_atom_site_occupancy
_atom_site_attached_hydrogens
Ta1 Ta5+ 4 i 0.3083(3) 0 0.1942(6) . 1. 0
Ta2 Ta5+ 4 i 0.5993(1) 0 0.2071(4) . 1. 0
O1 O2- 4 i 0.378(24) 0 0.473(1) . 1. 0
O2 O2- 4 i 0.152(34) 0 0.192(18) . 1. 0
N1 N3- 4 i 0.468(83) 0 0.167(51) . 1. 0
N2 N3- 4 i 0.781(64) 0 0.156(86) . 1. 0
#End of TTdata_192272-ICSD