
#(C) 2017 by FIZ Karlsruhe - Leibniz Institute for Information Infrastructure.  All rights reserved.
data_193440-ICSD
_database_code_ICSD 193440
_audit_creation_date 2015-08-01
_chemical_name_systematic 'Lithium carbide (1/12)'
_chemical_formula_structural 'Li C12'
_chemical_formula_sum 'C12 Li1'
_exptl_crystal_density_diffrn 2.26
_publ_section_title

;
An in-situ electrochemical cell for neutron diffraction studies of phase
transitions in small volume electrodes of Li-Ion batteries
;
loop_
_citation_id
_citation_journal_full
_citation_year
_citation_journal_volume
_citation_page_first
_citation_page_last
_citation_journal_id_ASTM
primary 'Journal of the Electrochemical Society' 2014 161 A1731 A1741 JESOAN
loop_
_publ_author_name
'Vadlamani, B.'
'An, K.'
'Jagannathan, M.'
'Chandran, K.S.Ravi'
_cell_length_a 4.2686(9)
_cell_length_b 4.2686(9)
_cell_length_c 7.0229(6)
_cell_angle_alpha 90.
_cell_angle_beta 90.
_cell_angle_gamma 120.
_cell_volume 110.82
_cell_formula_units_Z 1
_symmetry_space_group_name_H-M 'P 6/m m m'
_symmetry_Int_Tables_number 191
loop_
_symmetry_equiv_pos_site_id
_symmetry_equiv_pos_as_xyz
1 '-x, -x+y, -z'
2 'x-y, -y, -z'
3 'y, x, -z'
4 '-x+y, -x, -z'
5 '-y, x-y, -z'
6 'x, y, -z'
7 'x, x-y, -z'
8 '-x+y, y, -z'
9 '-y, -x, -z'
10 'x-y, x, -z'
11 'y, -x+y, -z'
12 '-x, -y, -z'
13 'x, x-y, z'
14 '-x+y, y, z'
15 '-y, -x, z'
16 'x-y, x, z'
17 'y, -x+y, z'
18 '-x, -y, z'
19 '-x, -x+y, z'
20 'x-y, -y, z'
21 'y, x, z'
22 '-x+y, -x, z'
23 '-y, x-y, z'
24 'x, y, z'
loop_
_atom_type_symbol
_atom_type_oxidation_number
Li0+ 0
C0+ 0
loop_
_atom_site_label
_atom_site_type_symbol
_atom_site_symmetry_multiplicity
_atom_site_Wyckoff_symbol
_atom_site_fract_x
_atom_site_fract_y
_atom_site_fract_z
_atom_site_B_iso_or_equiv
_atom_site_occupancy
_atom_site_attached_hydrogens
Li1 Li0+ 1 a 0 0 0 . 1. 0
C2 C0+ 12 n 0.333 0 0.25 . 1. 0
#End of TTdata_193440-ICSD