
#(C) 2017 by FIZ Karlsruhe - Leibniz Institute for Information Infrastructure.  All rights reserved.
data_193548-ICSD
_database_code_ICSD 193548
_audit_creation_date 2015-08-01
_chemical_name_systematic 'Magnesium dichromate(III)'
_chemical_formula_structural 'Mg (Cr2 O4)'
_chemical_formula_sum 'Cr2 Mg1 O4'
_exptl_crystal_density_diffrn 4.88
_cell_measurement_temperature 293.
_publ_section_title

;
High-pressure high-temperature transitions in Mg Cr2 O4 and crystal structures
of new Mg2 Cr2 O5 and post-spinel Mg Cr2 O4 phases with implications for
ultrahigh-pressure chromitites in ophiolites
;
loop_
_citation_id
_citation_journal_full
_citation_year
_citation_journal_volume
_citation_page_first
_citation_page_last
_citation_journal_id_ASTM
primary 'American Mineralogist' 2015 100 59 65 AMMIAY
loop_
_publ_author_name
'Ishii, Takayuki'
'Kojitani, Hiroshi'
'Fujino, Kiyoshi'
'Yusa, Hitoshi'
'Mori, Daisuke'
'Inaguma, Yoshiyuki'
'Matsushita, Yoshitaka'
'Yamaura, Kazunari'
'Akaogi, Masaki'
_cell_length_a 2.85107(2)
_cell_length_b 9.48930(8)
_cell_length_c 9.67853(8)
_cell_angle_alpha 90.
_cell_angle_beta 90.
_cell_angle_gamma 90.
_cell_volume 261.85
_cell_formula_units_Z 4
_symmetry_space_group_name_H-M 'C m c m'
_symmetry_Int_Tables_number 63
_refine_ls_R_factor_all 0.0017
loop_
_symmetry_equiv_pos_site_id
_symmetry_equiv_pos_as_xyz
1 '-x, y, -z+1/2'
2 '-x, -y, z+1/2'
3 '-x, y, z'
4 '-x, -y, -z'
5 'x, -y, z+1/2'
6 'x, y, -z+1/2'
7 'x, -y, -z'
8 'x, y, z'
9 '-x+1/2, y+1/2, -z+1/2'
10 '-x+1/2, -y+1/2, z+1/2'
11 '-x+1/2, y+1/2, z'
12 '-x+1/2, -y+1/2, -z'
13 'x+1/2, -y+1/2, z+1/2'
14 'x+1/2, y+1/2, -z+1/2'
15 'x+1/2, -y+1/2, -z'
16 'x+1/2, y+1/2, z'
loop_
_atom_type_symbol
_atom_type_oxidation_number
Mg2+ 2
Cr3+ 3
O2- -2
loop_
_atom_site_label
_atom_site_type_symbol
_atom_site_symmetry_multiplicity
_atom_site_Wyckoff_symbol
_atom_site_fract_x
_atom_site_fract_y
_atom_site_fract_z
_atom_site_B_iso_or_equiv
_atom_site_occupancy
_atom_site_attached_hydrogens
Mg1 Mg2+ 4 c 0 0.1090(2) 0.25 0.0148(4) 1. 0
Cr1 Cr3+ 8 f 0 0.3670(1) 0.0707(1) 0.0076(1) 1. 0
O1 O2- 4 a 0 0 0 0.0033(2) 1. 0
O2 O2- 4 c 0 0.4629(3) 0.25 0.0033(2) 1. 0
O3 O2- 8 f 0 0.2676(2) 0.6134(1) 0.0033(2) 1. 0
#End of TTdata_193548-ICSD