
#(C) 2017 by FIZ Karlsruhe - Leibniz Institute for Information Infrastructure.  All rights reserved.
data_193723-ICSD
_database_code_ICSD 193723
_audit_creation_date 2015-08-01
_chemical_name_systematic 'Manganese sulfide (1/2)'
_chemical_formula_structural 'Mn S2'
_chemical_formula_sum 'Mn1 S2'
_exptl_crystal_density_diffrn 5.36
_cell_measurement_pressure 20000000.
_publ_section_title
'Giant pressure-induced volume collapse in the pyrite mineral Mn S2'
loop_
_citation_id
_citation_journal_full
_citation_year
_citation_journal_volume
_citation_page_first
_citation_page_last
_citation_journal_id_ASTM
primary 'Proceedings of the National Academy of Sciences, U.S.A.' 2014 111 5106
5110 PNASA6
loop_
_publ_author_name
'Kimber, Simon A.J.'
'Salamat, Ashkan'
'Evans, Shaun R.'
'Jeschke, Harald O.'
'Muthukumar, Kaliappan'
'Tomic, Milan'
'Salvat-Pujol, Francesc'
'Valenti, Roser'
'Kaisheva, Maria V.'
'Zizak, Ivo'
'Chatterji, Tapan'
_cell_length_a 5.4642(6)
_cell_length_b 5.3742(5)
_cell_length_c 5.4203(7)
_cell_angle_alpha 90.
_cell_angle_beta 111.93(2)
_cell_angle_gamma 90.
_cell_volume 147.65
_cell_formula_units_Z 4
_symmetry_space_group_name_H-M 'P 1 21/c 1'
_symmetry_Int_Tables_number 14
loop_
_symmetry_equiv_pos_site_id
_symmetry_equiv_pos_as_xyz
1 'x, -y+1/2, z+1/2'
2 '-x, -y, -z'
3 '-x, y+1/2, -z+1/2'
4 'x, y, z'
loop_
_atom_type_symbol
_atom_type_oxidation_number
Mn2+ 2
S1- -1
loop_
_atom_site_label
_atom_site_type_symbol
_atom_site_symmetry_multiplicity
_atom_site_Wyckoff_symbol
_atom_site_fract_x
_atom_site_fract_y
_atom_site_fract_z
_atom_site_B_iso_or_equiv
_atom_site_occupancy
_atom_site_attached_hydrogens
Mn1 Mn2+ 4 e 0.280(2) 0.012(2) 0.288(1) . 1. 0
S1 S1- 4 e 0.345(2) 0.375(2) 0.175(2) . 1. 0
S2 S1- 4 e -0.139(2) 0.601(2) -0.368(2) . 1. 0
#End of TTdata_193723-ICSD