
#(C) 2017 by FIZ Karlsruhe - Leibniz Institute for Information Infrastructure.  All rights reserved.
data_194877-ICSD
_database_code_ICSD 194877
_audit_creation_date 2015-08-01
_chemical_name_systematic 'Triyttrium aluminium tricarbide'
_chemical_formula_structural 'Y3 Al C3'
_chemical_formula_sum 'C3 Al1 Y3'
_exptl_crystal_density_diffrn 4.39
_cell_measurement_temperature 293.
_publ_section_title 'Crystal structure and electronic properties of Y3 Al C3'
loop_
_citation_id
_citation_journal_full
_citation_year
_citation_journal_volume
_citation_page_first
_citation_page_last
_citation_journal_id_ASTM
primary 'Inorganic Chemistry' 2015 54 710 712 INOCAJ
loop_
_publ_author_name
'Kotyrba, Martin R.'
'Cuervo-Reyes, Eduardo'
'Nesper, Reinhard'
_cell_length_a 7.0256(11)
_cell_length_b 3.5647(6)
_cell_length_c 9.9585(16)
_cell_angle_alpha 90.
_cell_angle_beta 90.
_cell_angle_gamma 90.
_cell_volume 249.4
_cell_formula_units_Z 2
_symmetry_space_group_name_H-M 'P m m a'
_symmetry_Int_Tables_number 51
_refine_ls_R_factor_all 0.0208
loop_
_symmetry_equiv_pos_site_id
_symmetry_equiv_pos_as_xyz
1 '-x+1/2, -y, z'
2 'x+1/2, -y, -z'
3 'x, -y, z'
4 '-x, -y, -z'
5 'x+1/2, y, -z'
6 '-x+1/2, y, z'
7 '-x, y, -z'
8 'x, y, z'
loop_
_atom_type_symbol
_atom_type_oxidation_number
Y0+ 0
Al0+ 0
C0+ 0
loop_
_atom_site_label
_atom_site_type_symbol
_atom_site_symmetry_multiplicity
_atom_site_Wyckoff_symbol
_atom_site_fract_x
_atom_site_fract_y
_atom_site_fract_z
_atom_site_B_iso_or_equiv
_atom_site_occupancy
_atom_site_attached_hydrogens
Y1 Y0+ 4 j 0.49213(4) 0.5 0.19895(3) 0.01192(11) 1 0
Y2 Y0+ 2 e 0.25 1. 0.45824(5) 0.01165(12) 1 0
Al1 Al0+ 2 e 0.25 1. 0.00680(15) 0.0170(3) 1 0
C1 C0+ 4 j 0.4911(4) 0.5 0.5655(4) 0.0129(6) 1 0
C2 C0+ 2 e 0.25 1. 0.2093(5) 0.0118(8) 1 0
loop_
_atom_site_aniso_label
_atom_site_aniso_type_symbol
_atom_site_aniso_U_11
_atom_site_aniso_U_22
_atom_site_aniso_U_33
_atom_site_aniso_U_12
_atom_site_aniso_U_13
_atom_site_aniso_U_23
Y1 Y0+ 0.01127(17) 0.01225(17) 0.01226(19) 0. 0.00122(11) 0.
Y2 Y0+ 0.0104(2) 0.01042(19) 0.0141(2) 0. 0. 0.
Al1 Al0+ 0.0203(8) 0.0199(7) 0.0109(7) 0. 0. 0.
C1 C0+ 0.0109(14) 0.0123(14) 0.0154(18) 0. -0.0018(11) 0.
C2 C0+ 0.011(2) 0.0137(19) 0.010(2) 0. 0. 0.
#End of TTdata_194877-ICSD