
#(C) 2017 by FIZ Karlsruhe - Leibniz Institute for Information Infrastructure.  All rights reserved.
data_194880-ICSD
_database_code_ICSD 194880
_audit_creation_date 2015-08-01
_chemical_name_systematic 'Barium pentagermanide'
_chemical_formula_structural 'Ba Ge5'
_chemical_formula_sum 'Ba1 Ge5'
_exptl_crystal_density_diffrn 5.96
_cell_measurement_temperature 293.
_publ_section_title
'Classical and nonclassical germanium environments in high-pressure Ba Ge5'
loop_
_citation_id
_citation_journal_full
_citation_year
_citation_journal_volume
_citation_page_first
_citation_page_last
_citation_journal_id_ASTM
primary 'Inorganic Chemistry' 2015 54 1019 1025 INOCAJ
loop_
_publ_author_name
'Castillo, Rodrigo'
'Carrillo-Cabrera, Wilder'
'Schwarz, Ulrich'
'Grin, Yuri'
_cell_length_a 8.3421(8)
_cell_length_b 4.8728(5)
_cell_length_c 13.7202(9)
_cell_angle_alpha 90
_cell_angle_beta 90
_cell_angle_gamma 90
_cell_volume 557.71
_cell_formula_units_Z 4
_symmetry_space_group_name_H-M 'I m m a'
_symmetry_Int_Tables_number 74
_refine_ls_R_factor_all 0.0126
loop_
_symmetry_equiv_pos_site_id
_symmetry_equiv_pos_as_xyz
1 '-x, y+1/2, -z'
2 '-x, -y+1/2, z'
3 '-x, y, z'
4 '-x, -y, -z'
5 'x, -y+1/2, z'
6 'x, y+1/2, -z'
7 'x, -y, -z'
8 'x, y, z'
9 '-x+1/2, y, -z+1/2'
10 '-x+1/2, -y, z+1/2'
11 '-x+1/2, y+1/2, z+1/2'
12 '-x+1/2, -y+1/2, -z+1/2'
13 'x+1/2, -y, z+1/2'
14 'x+1/2, y, -z+1/2'
15 'x+1/2, -y+1/2, -z+1/2'
16 'x+1/2, y+1/2, z+1/2'
loop_
_atom_type_symbol
_atom_type_oxidation_number
Ba0+ 0
Ge0+ 0
loop_
_atom_site_label
_atom_site_type_symbol
_atom_site_symmetry_multiplicity
_atom_site_Wyckoff_symbol
_atom_site_fract_x
_atom_site_fract_y
_atom_site_fract_z
_atom_site_B_iso_or_equiv
_atom_site_occupancy
_atom_site_attached_hydrogens
Ba1 Ba0+ 4 e 0 0.25 0.7826(3) 0.0104(10) 1 0
Ge1 Ge0+ 4 e 0 0.25 0.0397(6) 0.010(2) 1 0
Ge2 Ge0+ 8 i 0.1534(5) 0.25 0.5576(3) 0.0097(14) 1 0
Ge3 Ge0+ 8 i 0.2754(6) 0.25 0.1274(3) 0.0086(14) 1 0
#End of TTdata_194880-ICSD