
#(C) 2017 by FIZ Karlsruhe - Leibniz Institute for Information Infrastructure.  All rights reserved.
data_195025-ICSD
_database_code_ICSD 195025
_audit_creation_date 2015-08-01
_chemical_name_systematic 'Strontium diiron disulfide oxide'
_chemical_formula_structural 'Sr Fe2 S2 O'
_chemical_formula_sum 'Fe2 O1 S2 Sr1'
_exptl_crystal_density_diffrn 3.99
_cell_measurement_temperature 295.
_publ_section_title

;
Synthesis and characterization of frustrated spin ladders Sr Fe2 S2 O and Sr
Fe2 Se2 O
;
loop_
_citation_id
_citation_journal_full
_citation_year
_citation_journal_volume
_citation_page_first
_citation_page_last
_citation_journal_id_ASTM
primary 'European Journal of Inorganic Chemistry  (online)' 2015 2015 2982 2988
EJICFO
loop_
_publ_author_name
'Huh, Sungjoon'
'Prots, Yurii'
'Adler, Peter'
'Tjeng, Liu Hao'
'Valldor, Martin'
_cell_length_a 3.88662(1)
_cell_length_b 9.43371(4)
_cell_length_c 6.34795(3)
_cell_angle_alpha 90.
_cell_angle_beta 90.
_cell_angle_gamma 90.
_cell_volume 232.75
_cell_formula_units_Z 2
_symmetry_space_group_name_H-M 'P m m n S'
_symmetry_Int_Tables_number 59
_refine_ls_R_factor_all 0.027
loop_
_symmetry_equiv_pos_site_id
_symmetry_equiv_pos_as_xyz
1 'x+1/2, -y+1/2, -z'
2 'x+1/2, y+1/2, -z'
3 'x, -y, z'
4 '-x, y, z'
5 '-x+1/2, y+1/2, -z'
6 '-x+1/2, -y+1/2, -z'
7 '-x, -y, z'
8 'x, y, z'
loop_
_atom_type_symbol
_atom_type_oxidation_number
Sr2+ 2
Fe2+ 2
S2- -2
O2- -2
loop_
_atom_site_label
_atom_site_type_symbol
_atom_site_symmetry_multiplicity
_atom_site_Wyckoff_symbol
_atom_site_fract_x
_atom_site_fract_y
_atom_site_fract_z
_atom_site_B_iso_or_equiv
_atom_site_occupancy
_atom_site_attached_hydrogens
Sr1 Sr2+ 2 a 0 0 0.01894(9) 0.0137(2) 1. 0
Fe1 Fe2+ 4 e 0 0.32929(6) 0.3757(0) 0.0138(2) 1. 0
S1 S2- 4 e 0 0.2980(1) 0.7437(2) 0.0127(3) 1. 0
O1 O2- 2 b 0 0.5 0.2234(6) 0.012(1) 1. 0
loop_
_atom_site_aniso_label
_atom_site_aniso_type_symbol
_atom_site_aniso_U_11
_atom_site_aniso_U_22
_atom_site_aniso_U_33
_atom_site_aniso_U_12
_atom_site_aniso_U_13
_atom_site_aniso_U_23
Sr1 Sr2+ 0.0084(3) 0.0132(3) 0.0196(3) 0. 0. 0.
Fe1 Fe2+ 0.0117(3) 0.0121(3) 0.0177(3) 0. 0. 0.0036(2)
S1 S2- 0.0099(4) 0.0116(5) 0.0116(5) 0. 0. 0.0019(4)
O1 O2- 0.012(2) 0.007(2) 0.017(2) 0. 0. 0.
#End of TTdata_195025-ICSD