
data_195257-ICSD
_database_code_ICSD 195257
_audit_creation_date 2016-02-01
_chemical_name_systematic 'Germanium octathiotetravanadate(III)'
_chemical_formula_structural 'Ge (V4 Se8)'
_chemical_formula_sum 'Ge1 Se8 V4'
_chemical_name_structure_type V4GeS8
_exptl_crystal_density_diffrn 5.79
_cell_measurement_temperature 10.
_cell_length_a 7.17134(18)
_cell_length_b 7.16669(27)
_cell_length_c 10.13298(23)
_cell_angle_alpha 90.
_cell_angle_beta 90.
_cell_angle_gamma 90.
_cell_volume 520.78
_cell_formula_units_Z 2
_symmetry_space_group_name_H-M 'I m m 2'
_symmetry_Int_Tables_number 44
_refine_ls_R_factor_all 0.01
loop_
_symmetry_equiv_pos_site_id
_symmetry_equiv_pos_as_xyz
1 'x, -y, z'
2 '-x, y, z'
3 '-x, -y, z'
4 'x, y, z'
5 'x+1/2, -y+1/2, z+1/2'
6 '-x+1/2, y+1/2, z+1/2'
7 '-x+1/2, -y+1/2, z+1/2'
8 'x+1/2, y+1/2, z+1/2'
loop_
_atom_type_symbol
_atom_type_oxidation_number
Ge4+ 4
V3+ 3
Se2- -2
loop_
_atom_site_label
_atom_site_type_symbol
_atom_site_symmetry_multiplicity
_atom_site_Wyckoff_symbol
_atom_site_fract_x
_atom_site_fract_y
_atom_site_fract_z
_atom_site_B_iso_or_equiv
_atom_site_occupancy
_atom_site_attached_hydrogens
Ge1 Ge4+ 2 a 0 0 -0.0099 0.0173(9) 1. 0
V1 V3+ 4 c 0.19821(58) 0 0.39675(100) 0.0054(5) 1. 0
V2 V3+ 4 d 0 0.77542(77) 0.59901(104) 0.0054(5) 1. 0
Se1 Se2- 4 c 0.26640(50) 0 0.64081(68) 0.0063(3) 1. 0
Se2 Se2- 4 d 0 0.73751(59) 0.36257(78) 0.0063(3) 1. 0
Se3 Se2- 4 c 0.27326(54) 0 0.13988(84) 0.0063(3) 1. 0
Se4 Se2- 4 d 0 0.73275(65) 0.86536(76) 0.0063(3) 1. 0
