
#(C) 2017 by FIZ Karlsruhe - Leibniz Institute for Information Infrastructure.  All rights reserved.
data_195289-ICSD
_database_code_ICSD 195289
_audit_creation_date 2016-02-01
_chemical_name_systematic 'Gold(III) orthoarsenate'
_chemical_formula_structural 'Au (As O4)'
_chemical_formula_sum 'As1 Au1 O4'
_chemical_name_structure_type PdSO4
_exptl_crystal_density_diffrn 6.29
_publ_section_title 'Neue Phosphate der Edelmetalle'
loop_
_citation_id
_citation_journal_full
_citation_year
_citation_journal_volume
_citation_page_first
_citation_page_last
_citation_journal_id_ASTM
primary 'Dissertation Universit?t Bonn' 2009 2009 1 310 DUMMY9
loop_
_publ_author_name
'Panagiotidis, Konstantinos'
_cell_length_a 8.0243(11)
_cell_length_b 5.6328(8)
_cell_length_c 7.8884(10)
_cell_angle_alpha 90.
_cell_angle_beta 96.218(11)
_cell_angle_gamma 90.
_cell_volume 354.45
_cell_formula_units_Z 4
_symmetry_space_group_name_H-M 'C 1 2/c 1'
_symmetry_Int_Tables_number 15
_refine_ls_R_factor_all 0.0258
loop_
_symmetry_equiv_pos_site_id
_symmetry_equiv_pos_as_xyz
1 'x, -y, z+1/2'
2 '-x, -y, -z'
3 '-x, y, -z+1/2'
4 'x, y, z'
5 'x+1/2, -y+1/2, z+1/2'
6 '-x+1/2, -y+1/2, -z'
7 '-x+1/2, y+1/2, -z+1/2'
8 'x+1/2, y+1/2, z'
loop_
_atom_type_symbol
_atom_type_oxidation_number
Au3+ 3
As5+ 5
O2- -2
loop_
_atom_site_label
_atom_site_type_symbol
_atom_site_symmetry_multiplicity
_atom_site_Wyckoff_symbol
_atom_site_fract_x
_atom_site_fract_y
_atom_site_fract_z
_atom_site_B_iso_or_equiv
_atom_site_occupancy
_atom_site_attached_hydrogens
Au1 Au3+ 4 c 0.25 0.25 0 0.25 1. 0
As1 As5+ 4 e 0 0.0600(22) 0.25 0.25 1. 0
O1 O2- 8 f 0.4796(9) 0.7321(14) 0.4237(9) 0.25 1. 0
O2 O2- 8 f 0.6764(11) 0.4124(17) 0.2833(10) 0.25 1. 0
#End of TTdata_195289-ICSD