
#(C) 2017 by FIZ Karlsruhe - Leibniz Institute for Information Infrastructure.  All rights reserved.
data_196175-ICSD
_database_code_ICSD 196175
_audit_creation_date 2016-02-01
_chemical_name_systematic 'Vanadium dioxide'
_chemical_formula_structural 'V O2'
_chemical_formula_sum 'O2 V1'
_chemical_name_structure_type VO2(HT)
_exptl_crystal_density_diffrn 4.03
_cell_measurement_temperature 293.
_publ_section_title

;
Structurally restricted phase transitions in V O2 (B) and their impact on
transport properties
;
loop_
_citation_id
_citation_journal_full
_citation_year
_citation_journal_volume
_citation_page_first
_citation_page_last
_citation_journal_id_ASTM
primary 'Journal of Physical Chemistry C' 2015 119 25085 25092 JPCCCK
loop_
_publ_author_name
'Popuri, S.R.'
'Artemenko, A.'
'Decourt, R.'
'Josse, M.'
'Chung, U.C.'
'Michau, D.'
'Maglione, M.'
'Villesuzanne, A.'
'Pollet, M.'
_cell_length_a 12.0414(4)
_cell_length_b 3.6892(1)
_cell_length_c 6.4299(2)
_cell_angle_alpha 90.
_cell_angle_beta 106.95
_cell_angle_gamma 90.
_cell_volume 273.23
_cell_formula_units_Z 8
_symmetry_space_group_name_H-M 'C 1 2/m 1'
_symmetry_Int_Tables_number 12
_refine_ls_R_factor_all 0.0681
loop_
_symmetry_equiv_pos_site_id
_symmetry_equiv_pos_as_xyz
1 '-x, y, -z'
2 '-x, -y, -z'
3 'x, -y, z'
4 'x, y, z'
5 '-x+1/2, y+1/2, -z'
6 '-x+1/2, -y+1/2, -z'
7 'x+1/2, -y+1/2, z'
8 'x+1/2, y+1/2, z'
loop_
_atom_type_symbol
_atom_type_oxidation_number
V4+ 4
O2- -2
loop_
_atom_site_label
_atom_site_type_symbol
_atom_site_symmetry_multiplicity
_atom_site_Wyckoff_symbol
_atom_site_fract_x
_atom_site_fract_y
_atom_site_fract_z
_atom_site_B_iso_or_equiv
_atom_site_occupancy
_atom_site_attached_hydrogens
V1 V4+ 4 i 0.3046(2) 0 0.7228(4) . 1. 0
V2 V4+ 4 i 0.4031(2) 0 0.3044(4) . 1. 0
O1 O2- 4 i 0.3692(6) 0 0.998(1) . 1. 0
O2 O2- 4 i 0.2340(7) 0 0.330(1) . 1. 0
O3 O2- 4 i 0.4465(6) 0 0.648(1) . 1. 0
O4 O2- 4 i 0.1313(6) 0 0.697(1) . 1. 0
#End of TTdata_196175-ICSD