
#(C) 2017 by FIZ Karlsruhe - Leibniz Institute for Information Infrastructure.  All rights reserved.
data_196782-ICSD
_database_code_ICSD 196782
_audit_creation_date 2017-08-01
_chemical_name_systematic 'Zirconium arsenide (1/2)'
_chemical_formula_structural 'Zr As2'
_chemical_formula_sum 'As2 Zr1'
_exptl_crystal_density_diffrn 7.09
_publ_section_title
'The crystal structure of barium tetratitanate and two zirconium arsenides'
loop_
_citation_id
_citation_journal_full
_citation_year
_citation_journal_volume
_citation_page_first
_citation_page_last
_citation_journal_id_ASTM
primary 'Acta Crystallographica (1,1948-23,1967)' 1957 10 792 793 ACCRA9
loop_
_publ_author_name
'Trzebiatowski, W.'
'Lukaszewicz, K.'
'Weglowski, S.'
_cell_length_a 6.8
_cell_length_b 9.02
_cell_length_c 3.68
_cell_angle_alpha 90.
_cell_angle_beta 90.
_cell_angle_gamma 90.
_cell_volume 225.72
_cell_formula_units_Z 4
_symmetry_space_group_name_H-M 'P b n m'
_symmetry_Int_Tables_number 62
loop_
_symmetry_equiv_pos_site_id
_symmetry_equiv_pos_as_xyz
1 '-x+1/2, y+1/2, z'
2 'x, y, -z+1/2'
3 'x+1/2, -y+1/2, z+1/2'
4 '-x, -y, -z'
5 'x+1/2, -y+1/2, -z'
6 '-x, -y, z+1/2'
7 '-x+1/2, y+1/2, -z+1/2'
8 'x, y, z'
loop_
_atom_type_symbol
_atom_type_oxidation_number
Zr0+ 0
As0+ 0
loop_
_atom_site_label
_atom_site_type_symbol
_atom_site_symmetry_multiplicity
_atom_site_Wyckoff_symbol
_atom_site_fract_x
_atom_site_fract_y
_atom_site_fract_z
_atom_site_B_iso_or_equiv
_atom_site_occupancy
_atom_site_attached_hydrogens
Zr1 Zr0+ 4 c 0.225 0.841 0.25 . 1. 0
As1 As0+ 4 c 0.122 0.541 0.25 . 1. 0
As2 As0+ 4 c 0.081 0.148 0.25 . 1. 0
#End of TTdata_196782-ICSD