
#(C) 2017 by FIZ Karlsruhe - Leibniz Institute for Information Infrastructure.  All rights reserved.
data_200055-ICSD
_database_code_ICSD 200055
_audit_creation_date 1980-01-01
_chemical_name_systematic 'Palladium phosphide (7/3)'
_chemical_formula_structural 'Pd7 P3'
_chemical_formula_sum 'P3 Pd7'
_exptl_crystal_density_diffrn 9.52
_publ_section_title 'Kristallstruktur von Pd7 P3'
loop_
_citation_id
_citation_journal_full
_citation_year
_citation_journal_volume
_citation_page_first
_citation_page_last
_citation_journal_id_ASTM
primary 'Journal of the Less-Common Metals' 1977 55 177 184 JCOMAH
loop_
_publ_author_name
'Matkovic, T.'
'Schubert, K.'
_cell_length_a 11.976(2)
_cell_length_b 11.976(2)
_cell_length_c 7.055(2)
_cell_angle_alpha 90.
_cell_angle_beta 90.
_cell_angle_gamma 120.
_cell_volume 876.3
_cell_formula_units_Z 6
_symmetry_space_group_name_H-M 'R 3 H'
_symmetry_Int_Tables_number 146
loop_
_symmetry_equiv_pos_site_id
_symmetry_equiv_pos_as_xyz
1 '-x+y, -x, z'
2 '-y, x-y, z'
3 'x, y, z'
4 '-x+y+2/3, -x+1/3, z+1/3'
5 '-y+2/3, x-y+1/3, z+1/3'
6 'x+2/3, y+1/3, z+1/3'
7 '-x+y+1/3, -x+2/3, z+2/3'
8 '-y+1/3, x-y+2/3, z+2/3'
9 'x+1/3, y+2/3, z+2/3'
loop_
_atom_type_symbol
_atom_type_oxidation_number
Pd0+ 0
P0+ 0
loop_
_atom_site_label
_atom_site_type_symbol
_atom_site_symmetry_multiplicity
_atom_site_Wyckoff_symbol
_atom_site_fract_x
_atom_site_fract_y
_atom_site_fract_z
_atom_site_B_iso_or_equiv
_atom_site_occupancy
_atom_site_attached_hydrogens
Pd1 Pd0+ 9 b 0.093(1) 0.260(1) 0 . 1. 0
Pd2 Pd0+ 9 b 0.262(1) 0.163(1) 0.026(3) . 1. 0
Pd3 Pd0+ 9 b 0.209(2) 0.241(1) 0.389(3) . 1. 0
Pd4 Pd0+ 9 b 0.234(1) 0.028(1) 0.636(4) . 1. 0
Pd5 Pd0+ 3 a 0 0 0.289(4) . 1. 0
Pd6 Pd0+ 3 a 0 0 0.874(6) . 1. 0
P1 P0+ 9 b 0.206(3) 0.011(3) 0.321(9) . 1. 0
P2 P0+ 9 b 0.175(3) 0.188(3) 0.740(8) . 1. 0
#End of TTdata_200055-ICSD