
#(C) 2017 by FIZ Karlsruhe - Leibniz Institute for Information Infrastructure.  All rights reserved.
data_20005-ICSD
_database_code_ICSD 20005
_audit_creation_date 1980-01-01
_chemical_name_systematic 'Sodium calcium hydrogensilicate'
_chemical_formula_structural 'Na Ca H Si O4'
_chemical_formula_sum 'H1 Ca1 Na1 O4 Si1'
_exptl_crystal_density_diffrn 2.81
_publ_section_title 'Crystal structure of Na Ca H Si O4'
loop_
_citation_id
_citation_journal_full
_citation_year
_citation_journal_volume
_citation_page_first
_citation_page_last
_citation_journal_id_ASTM
primary 'Doklady Akademii Nauk SSSR' 1972 205 582 584 DANKAS
loop_
_publ_author_name
'Ljutin, V.I.'
'Kazak, V.F.'
'Ilyukhin, V.V.'
'Belov, H.V.'
_cell_length_a 5.71(5)
_cell_length_b 9.18(6)
_cell_length_c 7.03(5)
_cell_angle_alpha 90.
_cell_angle_beta 90.
_cell_angle_gamma 90.
_cell_volume 368.5
_cell_formula_units_Z 4
_symmetry_space_group_name_H-M 'C 2 2 21'
_symmetry_Int_Tables_number 20
_refine_ls_R_factor_all 0.084
loop_
_symmetry_equiv_pos_site_id
_symmetry_equiv_pos_as_xyz
1 '-x, y, -z+1/2'
2 '-x, -y, z+1/2'
3 'x, -y, -z'
4 'x, y, z'
5 '-x+1/2, y+1/2, -z+1/2'
6 '-x+1/2, -y+1/2, z+1/2'
7 'x+1/2, -y+1/2, -z'
8 'x+1/2, y+1/2, z'
loop_
_atom_type_symbol
_atom_type_oxidation_number
Ca2+ 2
Si4+ 4
Na1+ 1
O2- -2
H1+ 1
loop_
_atom_site_label
_atom_site_type_symbol
_atom_site_symmetry_multiplicity
_atom_site_Wyckoff_symbol
_atom_site_fract_x
_atom_site_fract_y
_atom_site_fract_z
_atom_site_B_iso_or_equiv
_atom_site_occupancy
_atom_site_attached_hydrogens
Ca1 Ca2+ 4 a 0 0 0 0.283 1. 0
Si1 Si4+ 4 b 0.5 0.145 0.25 0.283 1. 0
Na1 Na1+ 4 b 0 0.317 0.25 0.283 1. 0
O1 O2- 8 c 0.265 0.045 0.256 0.283 1. 0
O2 O2- 8 c 0.469 0.249 0.063 0.283 1. 0
#End of TTdata_20005-ICSD