
#(C) 2017 by FIZ Karlsruhe - Leibniz Institute for Information Infrastructure.  All rights reserved.
data_200145-ICSD
_database_code_ICSD 200145
_audit_creation_date 1980-01-01
_chemical_name_systematic 'Palladium dibismuth oxide'
_chemical_formula_structural 'Pd Bi2 O4'
_chemical_formula_sum 'Bi2 O4 Pd1'
_chemical_name_structure_type Bi2CuO4
_exptl_crystal_density_diffrn 8.9
_publ_section_title 'Etude de la serie isostructurale M(II) Bi2 O4 : Pb Bi2 O4'
loop_
_citation_id
_citation_journal_full
_citation_year
_citation_journal_volume
_citation_page_first
_citation_page_last
_citation_journal_id_ASTM
primary 'Revue de Chimie Minerale' 1977 14 249 255 RVCMA8
loop_
_publ_author_name
'Conflant, P.'
'Boivin, J.C.'
'Thomas, D.'
_cell_length_a 8.622(4)
_cell_length_b 8.622(4)
_cell_length_c 5.907(3)
_cell_angle_alpha 90.
_cell_angle_beta 90.
_cell_angle_gamma 90.
_cell_volume 439.12
_cell_formula_units_Z 4
_symmetry_space_group_name_H-M 'P 4/n c c Z'
_symmetry_Int_Tables_number 130
_refine_ls_R_factor_all 0.041
loop_
_symmetry_equiv_pos_site_id
_symmetry_equiv_pos_as_xyz
1 'y+1/2, x+1/2, -z+1/2'
2 '-y, x+1/2, -z'
3 'y+1/2, -x, -z'
4 '-y, -x, -z+1/2'
5 'x+1/2, y+1/2, -z'
6 '-x, y+1/2, -z+1/2'
7 'x+1/2, -y, -z+1/2'
8 '-x, -y, -z'
9 '-y+1/2, -x+1/2, z+1/2'
10 'y, -x+1/2, z'
11 '-y+1/2, x, z'
12 'y, x, z+1/2'
13 '-x+1/2, -y+1/2, z'
14 'x, -y+1/2, z+1/2'
15 '-x+1/2, y, z+1/2'
16 'x, y, z'
loop_
_atom_type_symbol
_atom_type_oxidation_number
Bi3+ 3
Pd2+ 2
O2- -2
loop_
_atom_site_label
_atom_site_type_symbol
_atom_site_symmetry_multiplicity
_atom_site_Wyckoff_symbol
_atom_site_fract_x
_atom_site_fract_y
_atom_site_fract_z
_atom_site_B_iso_or_equiv
_atom_site_occupancy
_atom_site_attached_hydrogens
Bi1 Bi3+ 8 f -.07935(8) 0.07935(8) 0.25 . 1. 0
Pd1 Pd2+ 4 c 0.25 0.25 0.0819(5) . 1. 0
O1 O2- 16 g 0.458(2) 0.140(2) 0.089(2) 0.8 1. 0
loop_
_atom_site_aniso_label
_atom_site_aniso_type_symbol
_atom_site_aniso_beta_11
_atom_site_aniso_beta_22
_atom_site_aniso_beta_33
_atom_site_aniso_beta_12
_atom_site_aniso_beta_13
_atom_site_aniso_beta_23
Bi1 Bi3+ 0.00236(8) 0.00236(8) 0.0039(2) -.0001(1) 0.0001(1) 0.0001(1)
Pd1 Pd2+ 0.0016(9) 0.0016(9) 0.0022(5) 0 0 0
#End of TTdata_200145-ICSD