
#(C) 2017 by FIZ Karlsruhe - Leibniz Institute for Information Infrastructure.  All rights reserved.
data_20053-ICSD
_database_code_ICSD 20053
_audit_creation_date 1980-01-01
_audit_update_record 1987-05-21
_chemical_name_systematic 'Indium digermanate'
_chemical_formula_structural 'In2 Ge2 O7'
_chemical_formula_sum 'Ge2 In2 O7'
_chemical_name_structure_type Sc2Si2O7
_exptl_crystal_density_diffrn 5.86
_publ_section_title
'About the crystal structure of indium pyrogermanate In2 Ge2 O7'
loop_
_citation_id
_citation_journal_full
_citation_year
_citation_journal_volume
_citation_page_first
_citation_page_last
_citation_journal_id_ASTM
primary 'Doklady Akademii Nauk SSSR' 1973 213 837 839 DANKAS
loop_
_publ_author_name
'Vavilin, V.I.'
'Gladkih, E.A.'
'Soldatov, E.A.'
'Kuz'min, E.A.'
'Ilyukhin, V.V.'
'Belov, N.V.'
_cell_length_a 6.59(2)
_cell_length_b 4.91(2)
_cell_length_c 8.72(3)
_cell_angle_alpha 90.
_cell_angle_beta 90.
_cell_angle_gamma 102.
_cell_volume 275.99
_cell_formula_units_Z 2
_symmetry_space_group_name_H-M 'B 1 1 2/m'
_symmetry_Int_Tables_number 12
_refine_ls_R_factor_all 0.121
loop_
_symmetry_equiv_pos_site_id
_symmetry_equiv_pos_as_xyz
1 '-x, -y, z'
2 '-x, -y, -z'
3 'x, y, -z'
4 'x, y, z'
5 '-x+1/2, -y, z+1/2'
6 '-x+1/2, -y, -z+1/2'
7 'x+1/2, y, -z+1/2'
8 'x+1/2, y, z+1/2'
loop_
_atom_type_symbol
_atom_type_oxidation_number
In3+ 3
Ge4+ 4
O2- -2
loop_
_atom_site_label
_atom_site_type_symbol
_atom_site_symmetry_multiplicity
_atom_site_Wyckoff_symbol
_atom_site_fract_x
_atom_site_fract_y
_atom_site_fract_z
_atom_site_B_iso_or_equiv
_atom_site_occupancy
_atom_site_attached_hydrogens
In1 In3+ 4 h 0 0.5 0.307 0.18 1. 0
Ge1 Ge4+ 4 i 0.232 0.908 0 0.18 1. 0
O1 O2- 2 a 0 0 0 0.18 1. 0
O2 O2- 4 i 0.41 0.218 0 0.18 1. 0
O3 O2- 8 j 0.24 0.711 0.162 0.18 1. 0
#End of TTdata_20053-ICSD