
#(C) 2017 by FIZ Karlsruhe - Leibniz Institute for Information Infrastructure.  All rights reserved.
data_200672-ICSD
_database_code_ICSD 200672
_audit_creation_date 1980-01-01
_audit_update_record 2005-10-01
_chemical_name_systematic 'Tin(IV) octathiomolybdate(II)'
_chemical_formula_structural 'Sn (Mo6 S8)'
_chemical_formula_sum 'Mo6 S8 Sn1'
_chemical_name_structure_type Chevrel-PbMo6S8
_exptl_crystal_density_diffrn 5.71
_publ_section_title 'Structure and properties of Sn Mo6 S8 single crystals'
loop_
_citation_id
_citation_journal_full
_citation_year
_citation_journal_volume
_citation_page_first
_citation_page_last
_citation_journal_id_ASTM
primary 'Doklady Akademii Nauk SSSR' 1978 242 87 89 DANKAS
loop_
_publ_author_name
'Alekseevskii, N.E.'
'Dobrovol'skii, N.M.'
'Kiosse, G.A.'
'Malinovskii, T.I.'
'Markus, M.M.'
'Radautsan, S.I.'
'Samus, D.P.'
_cell_length_a 6.515(2)
_cell_length_b 6.515(2)
_cell_length_c 6.515(2)
_cell_angle_alpha 89.6(1)
_cell_angle_beta 89.6(1)
_cell_angle_gamma 89.6(1)
_cell_volume 276.51
_cell_formula_units_Z 1
_symmetry_space_group_name_H-M 'R -3 R'
_symmetry_Int_Tables_number 148
_refine_ls_R_factor_all 0.13
loop_
_symmetry_equiv_pos_site_id
_symmetry_equiv_pos_as_xyz
1 '-z, -x, -y'
2 '-y, -z, -x'
3 '-x, -y, -z'
4 'z, x, y'
5 'y, z, x'
6 'x, y, z'
loop_
_atom_type_symbol
_atom_type_oxidation_number
Sn4+ 4
Mo2+ 2
S2- -2
loop_
_atom_site_label
_atom_site_type_symbol
_atom_site_symmetry_multiplicity
_atom_site_Wyckoff_symbol
_atom_site_fract_x
_atom_site_fract_y
_atom_site_fract_z
_atom_site_B_iso_or_equiv
_atom_site_occupancy
_atom_site_attached_hydrogens
Sn1 Sn4+ 1 a 0 0 0 2.57(10) 1. 0
Mo1 Mo2+ 6 f 0.2248(5) 0.5605(5) 0.4152(5) 0.28(10) 1. 0
S1 S2- 6 f 0.7429(12) 0.1299(12) 0.3795(12) 0.15(10) 1. 0
S2 S2- 2 c 0.2424(12) 0.2424(12) 0.2424(12) 0.35(10) 1. 0
#End of TTdata_200672-ICSD