
#(C) 2017 by FIZ Karlsruhe - Leibniz Institute for Information Infrastructure.  All rights reserved.
data_200799-ICSD
_database_code_ICSD 200799
_audit_creation_date 1980-12-31
_chemical_name_systematic 'Arsenic selenide iodide'
_chemical_formula_structural 'As Se I'
_chemical_formula_sum 'As1 I1 Se1'
_exptl_crystal_density_diffrn 5.16
_publ_section_title 'Synthesis and structure of As Se I crystals'
loop_
_citation_id
_citation_journal_full
_citation_year
_citation_journal_volume
_citation_page_first
_citation_page_last
_citation_journal_id_ASTM
primary 'Doklady Akademii Nauk SSSR' 1980 251 1396 1398 DANKAS
loop_
_publ_author_name
'Kanishcheva, A.S.'
'Mikhailov, Yu.N.'
'Chernov, A.P.'
_cell_length_a 8.839(2)
_cell_length_b 4.189(1)
_cell_length_c 9.775(3)
_cell_angle_alpha 90.
_cell_angle_beta 93.87(2)
_cell_angle_gamma 90.
_cell_volume 361.11
_cell_formula_units_Z 4
_symmetry_space_group_name_H-M 'P 1 21/n 1'
_symmetry_Int_Tables_number 14
_refine_ls_R_factor_all 0.063
loop_
_symmetry_equiv_pos_site_id
_symmetry_equiv_pos_as_xyz
1 '-x+1/2, y+1/2, -z+1/2'
2 '-x, -y, -z'
3 'x+1/2, -y+1/2, z+1/2'
4 'x, y, z'
loop_
_atom_type_symbol
_atom_type_oxidation_number
I1- -1
Se2- -2
As3+ 3
loop_
_atom_site_label
_atom_site_type_symbol
_atom_site_symmetry_multiplicity
_atom_site_Wyckoff_symbol
_atom_site_fract_x
_atom_site_fract_y
_atom_site_fract_z
_atom_site_B_iso_or_equiv
_atom_site_occupancy
_atom_site_attached_hydrogens
I1 I1- 4 e 0.2758(1) 0.4894(2) 0.9181(1) . 1. 0
Se1 Se2- 4 e 0.0970(1) 0.0389(3) 0.1814(1) . 1. 0
As1 As3+ 4 e 0.3579(1) 0.1378(3) 0.1392(1) . 1. 0
loop_
_atom_site_aniso_label
_atom_site_aniso_type_symbol
_atom_site_aniso_B_11
_atom_site_aniso_B_22
_atom_site_aniso_B_33
_atom_site_aniso_B_12
_atom_site_aniso_B_13
_atom_site_aniso_B_23
I1 I1- 1.59(3) 1.08(3) 0.71(3) 0.00(2) 0.20(2) 0.17(2)
Se1 Se2- 0.69(4) 0.96(4) 0.73(4) 0.03(3) 0.06(3) 0.60(3)
As1 As3+ 0.96(4) 0.73(4) 0.64(4) 0.12(4) 0.44(3) 0.04(3)
#End of TTdata_200799-ICSD