
#(C) 2017 by FIZ Karlsruhe - Leibniz Institute for Information Infrastructure.  All rights reserved.
data_200999-ICSD
_database_code_ICSD 200999
_audit_creation_date 1981-12-31
_audit_update_record 2006-04-01
_chemical_name_systematic 'Dilithium rhenate(IV)'
_chemical_formula_structural 'Li2 (Re O3)'
_chemical_formula_sum 'Li2 O3 Re1'
_exptl_crystal_density_diffrn 7.81
_publ_section_title
'Structural aspects of lithium insertion in oxides: Lix Re O3 and Li2 Fe V3 O8'
loop_
_citation_id
_citation_journal_full
_citation_year
_citation_journal_volume
_citation_page_first
_citation_page_last
_citation_journal_id_ASTM
primary 'Solid State Ionics' 1981 5 323 326 SSIOD3
loop_
_publ_author_name
'Cava, R.J.'
'Santoro, A.'
'Murphy, D.W.'
'Zahurak, S.M.'
'Roth, R.S.'
_cell_length_a 4.9711(1)
_cell_length_b 4.9711(1)
_cell_length_c 14.788(1)
_cell_angle_alpha 90.
_cell_angle_beta 90.
_cell_angle_gamma 120.
_cell_volume 316.48
_cell_formula_units_Z 6
_symmetry_space_group_name_H-M 'R 3 c H'
_symmetry_Int_Tables_number 161
_refine_ls_R_factor_all 0.081
loop_
_symmetry_equiv_pos_site_id
_symmetry_equiv_pos_as_xyz
1 '-x+y, y, z+1/2'
2 'x, x-y, z+1/2'
3 '-y, -x, z+1/2'
4 '-x+y, -x, z'
5 '-y, x-y, z'
6 'x, y, z'
7 '-x+y+2/3, y+1/3, z+5/6'
8 'x+2/3, x-y+1/3, z+5/6'
9 '-y+2/3, -x+1/3, z+5/6'
10 '-x+y+2/3, -x+1/3, z+1/3'
11 '-y+2/3, x-y+1/3, z+1/3'
12 'x+2/3, y+1/3, z+1/3'
13 '-x+y+1/3, y+2/3, z+1/6'
14 'x+1/3, x-y+2/3, z+1/6'
15 '-y+1/3, -x+2/3, z+1/6'
16 '-x+y+1/3, -x+2/3, z+2/3'
17 '-y+1/3, x-y+2/3, z+2/3'
18 'x+1/3, y+2/3, z+2/3'
loop_
_atom_type_symbol
_atom_type_oxidation_number
Re4+ 4
Li1+ 1
O2- -2
loop_
_atom_site_label
_atom_site_type_symbol
_atom_site_symmetry_multiplicity
_atom_site_Wyckoff_symbol
_atom_site_fract_x
_atom_site_fract_y
_atom_site_fract_z
_atom_site_B_iso_or_equiv
_atom_site_occupancy
_atom_site_attached_hydrogens
Re1 Re4+ 6 a 0 0 0 0.21(6) 1. 0
Li1 Li1+ 6 a 0 0 0.312(1) 1.4(3) 1. 0
Li2 Li1+ 6 a 0 0 0.169(1) 1.4(3) 1. 0
O1 O2- 18 b -.3580(9) -.008(2) 0.2551(8) 0.21(6) 1. 0
#End of TTdata_200999-ICSD