
#(C) 2017 by FIZ Karlsruhe - Leibniz Institute for Information Infrastructure.  All rights reserved.
data_201579-ICSD
_database_code_ICSD 201579
_audit_creation_date 1985-08-06
_audit_update_record 2005-10-01
_chemical_name_systematic 'Molybdenum sulfide (6/8)'
_chemical_formula_structural 'Mo6 S8'
_chemical_formula_sum 'Mo6 S8'
_chemical_name_structure_type Mo3Se4
_exptl_crystal_density_diffrn 5.2
_publ_section_title

;
Labilite des cations dans les chalcogenures ternaires de molybdene: voies
d'acces a de nouvelles syntheses
;
loop_
_citation_id
_citation_journal_full
_citation_year
_citation_journal_volume
_citation_page_first
_citation_page_last
_citation_journal_id_ASTM
primary 'Revue de Chimie Minerale' 1984 21 509 536 RVCMA8
loop_
_publ_author_name
'Potel, M.'
'Gougeon, P.'
'Chevrel, R.'
'Sergent, M.'
_cell_length_a 6.432
_cell_length_b 6.432
_cell_length_c 6.432
_cell_angle_alpha 91.34
_cell_angle_beta 91.34
_cell_angle_gamma 91.34
_cell_volume 265.87
_cell_formula_units_Z 1
_symmetry_space_group_name_H-M 'R -3 R'
_symmetry_Int_Tables_number 148
loop_
_symmetry_equiv_pos_site_id
_symmetry_equiv_pos_as_xyz
1 '-z, -x, -y'
2 '-y, -z, -x'
3 '-x, -y, -z'
4 'z, x, y'
5 'y, z, x'
6 'x, y, z'
loop_
_atom_type_symbol
_atom_type_oxidation_number
Mo2+ 2.667
S2- -2
loop_
_atom_site_label
_atom_site_type_symbol
_atom_site_symmetry_multiplicity
_atom_site_Wyckoff_symbol
_atom_site_fract_x
_atom_site_fract_y
_atom_site_fract_z
_atom_site_B_iso_or_equiv
_atom_site_occupancy
_atom_site_attached_hydrogens
Mo1 Mo2+ 6 f 0.21297(9) 0.40547(9) 0.55044(9) 0.33(1) 1. 0
S1 S2- 6 f 0.38683(27) 0.13186(27) 0.73673(27) 0.52(2) 1. 0
S2 S2- 2 c 0.21711(27) 0.21711(27) 0.21711(27) 0.49(4) 1. 0
#End of TTdata_201579-ICSD