
#(C) 2017 by FIZ Karlsruhe - Leibniz Institute for Information Infrastructure.  All rights reserved.
data_201743-ICSD
_database_code_ICSD 201743
_audit_creation_date 1986-12-03
_audit_update_record 1997-05-13
_chemical_name_systematic 'Antimony(V) oxide phosphate'
_chemical_formula_structural 'Sb O (P O4)'
_chemical_formula_sum 'O5 P1 Sb1'
_chemical_name_structure_type CaCrF5
_exptl_crystal_density_diffrn 4.47
_publ_section_title

;
Synthesis, thermal stability, and crystal structure of Antimony(V) phosphate
Sb O P O4
;
loop_
_citation_id
_citation_journal_full
_citation_year
_citation_journal_volume
_citation_page_first
_citation_page_last
_citation_journal_id_ASTM
primary 'Journal of Solid State Chemistry' 1986 63 81 85 JSSCBI
loop_
_publ_author_name
'Piffard, Y.'
'Oyetola, S.'
'Verbaere, A.'
'Tournoux, M.'
_cell_length_a 6.791(1)
_cell_length_b 8.033(1)
_cell_length_c 7.046(1)
_cell_angle_alpha 90.
_cell_angle_beta 115.90(1)
_cell_angle_gamma 90.
_cell_volume 345.77
_cell_formula_units_Z 4
_symmetry_space_group_name_H-M 'C 1 2/c 1'
_symmetry_Int_Tables_number 15
_refine_ls_R_factor_all 0.032
loop_
_symmetry_equiv_pos_site_id
_symmetry_equiv_pos_as_xyz
1 'x, -y, z+1/2'
2 '-x, -y, -z'
3 '-x, y, -z+1/2'
4 'x, y, z'
5 'x+1/2, -y+1/2, z+1/2'
6 '-x+1/2, -y+1/2, -z'
7 '-x+1/2, y+1/2, -z+1/2'
8 'x+1/2, y+1/2, z'
loop_
_atom_type_symbol
_atom_type_oxidation_number
Sb5+ 5
P5+ 5
O2- -2
loop_
_atom_site_label
_atom_site_type_symbol
_atom_site_symmetry_multiplicity
_atom_site_Wyckoff_symbol
_atom_site_fract_x
_atom_site_fract_y
_atom_site_fract_z
_atom_site_B_iso_or_equiv
_atom_site_occupancy
_atom_site_attached_hydrogens
Sb1 Sb5+ 4 a 0 0 0 . 1. 0
P1 P5+ 4 e 0 0.3348(3) 0.25 . 1. 0
O1 O2- 4 e 0 0.9105(9) 0.25 . 1. 0
O2 O2- 8 f 0.5884(7) 0.2751(6) 0.6254(7) . 1. 0
O3 O2- 8 f 0.1848(7) 0.4440(7) 0.4012(8) . 1. 0
loop_
_atom_site_aniso_label
_atom_site_aniso_type_symbol
_atom_site_aniso_beta_11
_atom_site_aniso_beta_22
_atom_site_aniso_beta_33
_atom_site_aniso_beta_12
_atom_site_aniso_beta_13
_atom_site_aniso_beta_23
Sb1 Sb5+ 0.00317(6) 0.00127(5) 0.00242(6) 0.0009(3) 0.00280(9) 0.0004(3)
P1 P5+ 0.0043(4) 0.0011(3) 0.0043(3) 0 0.0038(5) 0
O1 O2- 0.007(1) 0.0018(8) 0.003(1) 0 0.004(2) 0
O2 O2- 0.0052(8) 0.0022(6) 0.0064(8) 0.004(1) 0.007(1) 0.004(1)
O3 O2- 0.0041(8) 0.0035(6) 0.0080(8) -.003(1) 0.006(1) -.004(1)
#End of TTdata_201743-ICSD