
#(C) 2017 by FIZ Karlsruhe - Leibniz Institute for Information Infrastructure.  All rights reserved.
data_201977-ICSD
_database_code_ICSD 201977
_audit_creation_date 1988-12-19
_audit_update_record 2011-02-01
_chemical_name_systematic 'Tetrascandium hexachloride boride'
_chemical_formula_structural 'Sc4 Cl6 B'
_chemical_formula_sum 'B1 Cl6 Sc4'
_chemical_name_structure_type Sc4Cl6B
_exptl_crystal_density_diffrn 2.6
_publ_section_title

;
Metal-metal bonded scandium cluster (Sc7 Cl12 Z) and infinite chain (Sc4 Cl6
Z) phases stabilized by interstitial boron or nitrogen (Z)
;
loop_
_citation_id
_citation_journal_full
_citation_year
_citation_journal_volume
_citation_page_first
_citation_page_last
_citation_journal_id_ASTM
primary 'Journal of Solid State Chemistry' 1986 64 331 346 JSSCBI
loop_
_publ_author_name
'Hwu, S.-J.'
'Corbett, J.D.'
_cell_length_a 11.741(1)
_cell_length_b 12.187(1)
_cell_length_c 3.5988(3)
_cell_angle_alpha 90.
_cell_angle_beta 90.
_cell_angle_gamma 90.
_cell_volume 514.94
_cell_formula_units_Z 2
_symmetry_space_group_name_H-M 'P b a m'
_symmetry_Int_Tables_number 55
_refine_ls_R_factor_all 0.035
loop_
_symmetry_equiv_pos_site_id
_symmetry_equiv_pos_as_xyz
1 'x+1/2, -y+1/2, z'
2 '-x+1/2, y+1/2, z'
3 'x, y, -z'
4 '-x, -y, -z'
5 '-x+1/2, y+1/2, -z'
6 'x+1/2, -y+1/2, -z'
7 '-x, -y, z'
8 'x, y, z'
loop_
_atom_type_symbol
_atom_type_oxidation_number
Sc2+ 2.25
Cl1- -1
B3- -3
loop_
_atom_site_label
_atom_site_type_symbol
_atom_site_symmetry_multiplicity
_atom_site_Wyckoff_symbol
_atom_site_fract_x
_atom_site_fract_y
_atom_site_fract_z
_atom_site_B_iso_or_equiv
_atom_site_occupancy
_atom_site_attached_hydrogens
Sc1 Sc2+ 4 h 0.3745(1) 0.3521(1) 0.5 . 1. 0
Sc2 Sc2+ 4 g 0.3948(1) 0.5830(1) 0 . 1. 0
Cl1 Cl1- 4 g 0.4794(2) 0.2407(2) 0 . 1. 0
Cl2 Cl1- 4 g 0.2400(2) 0.4297(2) 0 . 1. 0
Cl3 Cl1- 4 h 0.2326(2) 0.1814(2) 0.5 . 1. 0
B1 B3- 2 b 0.5 0.5 0.5 0.7(1) 1. 0
loop_
_atom_site_aniso_label
_atom_site_aniso_type_symbol
_atom_site_aniso_B_11
_atom_site_aniso_B_22
_atom_site_aniso_B_33
_atom_site_aniso_B_12
_atom_site_aniso_B_13
_atom_site_aniso_B_23
Sc1 Sc2+ 1.32(6) 1.06(5) 0.91(5) -.14(5) 0 0
Sc2 Sc2+ 1.08(5) 0.86(5) 0.86(5) -.04(4) 0 0
Cl1 Cl1- 1.4(1) 1.13(5) 1.20(5) -.01(5) 0 0
Cl2 Cl1- 1.23(7) 1.53(7) 1.16(6) -.06(6) 0 0
Cl3 Cl1- 1.74(8) 1.65(7) 1.08(6) -.77(6) 0 0
#End of TTdata_201977-ICSD