
data_202078-ICSD
_database_code_ICSD 202078
_audit_creation_date 1988-12-19
_audit_update_record 1997-05-13
_chemical_name_systematic 'Rubidium iodide azide'
_chemical_formula_structural 'Rb2 I N3'
_chemical_formula_sum 'I1 N3 Rb2'
_exptl_crystal_density_diffrn 3.57
_cell_length_a 6.252(3)
_cell_length_b 6.252(3)
_cell_length_c 8.081(2)
_cell_angle_alpha 90.
_cell_angle_beta 90.
_cell_angle_gamma 90.
_cell_volume 315.87
_cell_formula_units_Z 2
_symmetry_space_group_name_H-M 'P -4 b 2'
_symmetry_Int_Tables_number 117
_refine_ls_R_factor_all 0.02
loop_
_symmetry_equiv_pos_site_id
_symmetry_equiv_pos_as_xyz
1 '-y+1/2, -x+1/2, -z'
2 'y, -x, -z'
3 'y+1/2, x+1/2, -z'
4 '-y, x, -z'
5 'x+1/2, -y+1/2, z'
6 '-x, -y, z'
7 '-x+1/2, y+1/2, z'
8 'x, y, z'
loop_
_atom_type_symbol
_atom_type_oxidation_number
I1- -1
Rb1+ 1
N5+ 5
N3- -3
loop_
_atom_site_label
_atom_site_type_symbol
_atom_site_symmetry_multiplicity
_atom_site_Wyckoff_symbol
_atom_site_fract_x
_atom_site_fract_y
_atom_site_fract_z
_atom_site_B_iso_or_equiv
_atom_site_occupancy
_atom_site_attached_hydrogens
I1 I1- 2 c 0 0.5 0 . 1. 0
Rb1 Rb1+ 4 e 0 0 0.26287(9) . 1. 0
N1 N5+ 2 d 0 0.5 0.5 . 1. 0
N2 N3- 4 h 0.135(2) 0.635(2) 0.5 . 1. 0
loop_
_atom_site_aniso_label
_atom_site_aniso_type_symbol
_atom_site_aniso_U_11
_atom_site_aniso_U_22
_atom_site_aniso_U_33
_atom_site_aniso_U_12
_atom_site_aniso_U_13
_atom_site_aniso_U_23
I1 I1- 0.0272(3) 0.0272 0.0323(3) 0.003(1) 0 0
Rb1 Rb1+ 0.0210(3) 0.0336(6) 0.0262(3) -.008(1) 0 0
N1 N5+ 0.034(5) 0.034 0.019(3) -.019(7) 0 0
N2 N3- 0.026(4) 0.026 0.045(4) -.007(3) 0.0001(2) -.0001(2)
