
#(C) 2017 by FIZ Karlsruhe - Leibniz Institute for Information Infrastructure.  All rights reserved.
data_202001-ICSD
_database_code_ICSD 202001
_audit_creation_date 1988-12-19
_chemical_name_systematic 'Lanthanum rhenium oxide (3/2/10)'
_chemical_formula_structural 'La3 Re2 O10'
_chemical_formula_sum 'La3 O10 Re2'
_exptl_crystal_density_diffrn 7.89
_publ_section_title

;
Preparation and crystal structure of La3 Re2 O10: An example of metal-metal
bonding within Re2 O10 units
;
loop_
_citation_id
_citation_journal_full
_citation_year
_citation_journal_volume
_citation_page_first
_citation_page_last
_citation_journal_id_ASTM
primary 'Journal of the Less-Common Metals' 1986 116 293 299 JCOMAH
loop_
_publ_author_name
'Torardi, C.C.'
'Sleight, A.W.'
_cell_length_a 7.901(1)
_cell_length_b 7.866(1)
_cell_length_c 7.115(1)
_cell_angle_alpha 90.
_cell_angle_beta 115.44(1)
_cell_angle_gamma 90.
_cell_volume 399.32
_cell_formula_units_Z 2
_symmetry_space_group_name_H-M 'C 1 2/m 1'
_symmetry_Int_Tables_number 12
_refine_ls_R_factor_all 0.036
loop_
_symmetry_equiv_pos_site_id
_symmetry_equiv_pos_as_xyz
1 '-x, y, -z'
2 '-x, -y, -z'
3 'x, -y, z'
4 'x, y, z'
5 '-x+1/2, y+1/2, -z'
6 '-x+1/2, -y+1/2, -z'
7 'x+1/2, -y+1/2, z'
8 'x+1/2, y+1/2, z'
loop_
_atom_type_symbol
_atom_type_oxidation_number
Re5+ 5.5
La3+ 3
O2- -2
loop_
_atom_site_label
_atom_site_type_symbol
_atom_site_symmetry_multiplicity
_atom_site_Wyckoff_symbol
_atom_site_fract_x
_atom_site_fract_y
_atom_site_fract_z
_atom_site_B_iso_or_equiv
_atom_site_occupancy
_atom_site_attached_hydrogens
Re1 Re5+ 4 i 0.63546(6) 0 0.17428(7) . 1. 0
La1 La3+ 2 a 0 0 0 . 1. 0
La2 La3+ 4 h 0 0.25651(10) 0.5 . 1. 0
O1 O2- 4 i 0.6455(13) 0 0.9022(14) 0.5(1) 1. 0
O2 O2- 4 i 0.9037(14) 0 0.2811(16) 1.0(1) 1. 0
O3 O2- 8 j 0.6365(10) 0.7648(9) 0.2122(11) 1.0(1) 1. 0
O4 O2- 4 i 0.6754(13) 0 0.4733(15) 0.8(1) 1. 0
loop_
_atom_site_aniso_label
_atom_site_aniso_type_symbol
_atom_site_aniso_B_11
_atom_site_aniso_B_22
_atom_site_aniso_B_33
_atom_site_aniso_B_12
_atom_site_aniso_B_13
_atom_site_aniso_B_23
Re1 Re5+ 0.51(3) 0.59(3) 0.64(3) 0 0.25(2) 0
La1 La3+ 1.00(5) 0.85(4) 1.09(4) 0 0.70(4) 0
La2 La3+ 0.98(4) 0.95(4) 0.91(4) 0 0.42(3) 0
#End of TTdata_202001-ICSD