
#(C) 2017 by FIZ Karlsruhe - Leibniz Institute for Information Infrastructure.  All rights reserved.
data_202186-ICSD
_database_code_ICSD 202186
_audit_creation_date 1988-12-19
_chemical_name_systematic 'Iron(III) chloride molybdate'
_chemical_formula_structural 'Fe Cl Mo O4'
_chemical_formula_sum 'Cl1 Fe1 Mo1 O4'
_chemical_name_structure_type FeMoO4Cl
_exptl_crystal_density_diffrn 3.67
_cell_measurement_temperature 4.85
_publ_section_title

;
Further aspects of the structure and magnetism of the layered compound Fe Cl
Mo O4; Moessbauer spectroscopy, susceptibility and powder neutron diffraction
studies
;
loop_
_citation_id
_citation_journal_full
_citation_year
_citation_journal_volume
_citation_page_first
_citation_page_last
_citation_journal_id_ASTM
primary 'Journal of Solid State Chemistry' 1987 66 105 115 JSSCBI
loop_
_publ_author_name
'Torardi, C.C.'
'Reiff, W.M.'
'Lazar, K.'
'Zhang, J.-H.'
'Cox, D.E.'
_cell_length_a 6.6849(2)
_cell_length_b 6.6849(2)
_cell_length_c 5.0887(3)
_cell_angle_alpha 90.
_cell_angle_beta 90.
_cell_angle_gamma 90.
_cell_volume 227.4
_cell_formula_units_Z 2
_symmetry_space_group_name_H-M 'P 4/n m m Z'
_symmetry_Int_Tables_number 129
_refine_ls_R_factor_all 0.054
loop_
_symmetry_equiv_pos_site_id
_symmetry_equiv_pos_as_xyz
1 'y+1/2, x+1/2, -z'
2 '-y, x+1/2, -z'
3 'y+1/2, -x, -z'
4 '-y, -x, -z'
5 'x+1/2, y+1/2, -z'
6 '-x, y+1/2, -z'
7 'x+1/2, -y, -z'
8 '-x, -y, -z'
9 '-y+1/2, -x+1/2, z'
10 'y, -x+1/2, z'
11 '-y+1/2, x, z'
12 'y, x, z'
13 '-x+1/2, -y+1/2, z'
14 'x, -y+1/2, z'
15 '-x+1/2, y, z'
16 'x, y, z'
loop_
_atom_type_symbol
_atom_type_oxidation_number
Mo6+ 6
Fe3+ 3
Cl1- -1
O2- -2
loop_
_atom_site_label
_atom_site_type_symbol
_atom_site_symmetry_multiplicity
_atom_site_Wyckoff_symbol
_atom_site_fract_x
_atom_site_fract_y
_atom_site_fract_z
_atom_site_B_iso_or_equiv
_atom_site_occupancy
_atom_site_attached_hydrogens
Mo1 Mo6+ 2 a 0.75 0.25 0 0.5(1) 1. 0
Fe1 Fe3+ 2 c 0.25 0.25 0.2704(8) 1.1(1) 1. 0
Cl1 Cl1- 2 c 0.25 0.25 0.7091(8) 0.5(1) 1. 0
O1 O2- 8 i 0.25 0.9608(4) 0.2067(6) 0.6(1) 1. 0
#End of TTdata_202186-ICSD