
#(C) 2017 by FIZ Karlsruhe - Leibniz Institute for Information Infrastructure.  All rights reserved.
data_20265-ICSD
_database_code_ICSD 20265
_audit_creation_date 1981-12-31
_audit_update_record 2004-04-01
_chemical_name_systematic 'Yttrium tantalate'
_chemical_formula_structural 'Y (Ta O4)'
_chemical_formula_sum 'O4 Ta1 Y1'
_chemical_name_structure_type YTaO4
_exptl_crystal_density_diffrn 7.54
_publ_section_title
'On the m' - structure of the 'orthotantalates' of the rare-earth elements'
loop_
_citation_id
_citation_journal_full
_citation_year
_citation_journal_volume
_citation_page_first
_citation_page_last
_citation_journal_id_ASTM
primary 'Doklady Akademii Nauk SSSR' 1981 260 103 106 DANKAS
loop_
_publ_author_name
'Trunov, V.K.'
'Kinzhibalo, L.N.'
'Efremov, V.A.'
'Krongauz, V.G.'
_cell_length_a 5.302(1)
_cell_length_b 5.454(1)
_cell_length_c 5.115(1)
_cell_angle_alpha 90.
_cell_angle_beta 96.46(2)
_cell_angle_gamma 90.
_cell_volume 146.97
_cell_formula_units_Z 2
_symmetry_space_group_name_H-M 'P 1 2/a 1'
_symmetry_Int_Tables_number 13
_refine_ls_R_factor_all 0.066
loop_
_symmetry_equiv_pos_site_id
_symmetry_equiv_pos_as_xyz
1 'x+1/2, -y, z'
2 '-x, -y, -z'
3 '-x+1/2, y, -z'
4 'x, y, z'
loop_
_atom_type_symbol
_atom_type_oxidation_number
Ta5+ 5
Y3+ 3
O2- -2
loop_
_atom_site_label
_atom_site_type_symbol
_atom_site_symmetry_multiplicity
_atom_site_Wyckoff_symbol
_atom_site_fract_x
_atom_site_fract_y
_atom_site_fract_z
_atom_site_B_iso_or_equiv
_atom_site_occupancy
_atom_site_attached_hydrogens
Ta1 Ta5+ 2 e 0.25 0.3055(1) 0 . 1. 0
Y1 Y3+ 2 f 0.25 0.7557(1) 0.5 . 1. 0
O1 O2- 4 g 0.4920(12) 0.4355(10) 0.2681(12) . 1. 0
O2 O2- 4 g 0.1014(12) 0.084(1) 0.2511(10) . 1. 0
#End of TTdata_20265-ICSD