
data_203064-ICSD
_database_code_ICSD 203064
_audit_creation_date 1990-12-27
_audit_update_record 1998-06-29
_chemical_name_systematic 'Dimercury(I) tellurium oxide'
_chemical_formula_structural 'Hg2 Te O3'
_chemical_formula_sum 'Hg2 O3 Te1'
_chemical_name_mineral Magnolite
_exptl_crystal_density_diffrn 8.11
_cell_length_a 5.958(1)
_cell_length_b 10.576(2)
_cell_length_c 3.749(1)
_cell_angle_alpha 90.
_cell_angle_beta 90.
_cell_angle_gamma 90.
_cell_volume 236.23
_cell_formula_units_Z 2
_symmetry_space_group_name_H-M 'P b m 2'
_symmetry_Int_Tables_number 28
_refine_ls_R_factor_all 0.045
loop_
_symmetry_equiv_pos_site_id
_symmetry_equiv_pos_as_xyz
1 '-x, y+1/2, z'
2 'x, -y+1/2, z'
3 '-x, -y, z'
4 'x, y, z'
loop_
_atom_type_symbol
_atom_type_oxidation_number
Hg1+ 1
Te4+ 4
O2- -2
loop_
_atom_site_label
_atom_site_type_symbol
_atom_site_symmetry_multiplicity
_atom_site_Wyckoff_symbol
_atom_site_fract_x
_atom_site_fract_y
_atom_site_fract_z
_atom_site_B_iso_or_equiv
_atom_site_occupancy
_atom_site_attached_hydrogens
Hg1 Hg1+ 4 d 0.1907(4) 0.5528(1) 0 . 1. 0
Te1 Te4+ 2 c 0.4452(8) 0.25 0.4991(27) . 1. 0
O1 O2- 4 d 0.501(10) 0.130(2) -.122(5) 0.029(6) 1. 0
O2 O2- 2 c 0.734(10) 0.25 0.438(8) 0.030(5) 1. 0
loop_
_atom_site_aniso_label
_atom_site_aniso_type_symbol
_atom_site_aniso_U_11
_atom_site_aniso_U_22
_atom_site_aniso_U_33
_atom_site_aniso_U_12
_atom_site_aniso_U_13
_atom_site_aniso_U_23
Hg1 Hg1+ 0.0149(11) 0.0210(5) 0.0351(7) 0.0059(17) 0.0078(33) -.0044(7)
Te1 Te4+ 0.0096(26) 0.0159(10) 0.0182(1) 0 0.0030(73) 0
