
data_20309-ICSD
_database_code_ICSD 20309
_audit_creation_date 1984-09-05
_audit_update_record 1998-06-26
_chemical_name_systematic 'Nickel arsenic sulfide (1/1/1)'
_chemical_formula_structural 'Ni As S'
_chemical_formula_sum 'As1 Ni1 S1'
_chemical_name_structure_type NiSSb
_chemical_name_mineral Gersdorffite
_exptl_crystal_density_diffrn 6.
_cell_length_a 5.681
_cell_length_b 5.681
_cell_length_c 5.681
_cell_angle_alpha 90.
_cell_angle_beta 90.
_cell_angle_gamma 90.
_cell_volume 183.35
_cell_formula_units_Z 4
_symmetry_space_group_name_H-M 'P 21 3'
_symmetry_Int_Tables_number 198
loop_
_symmetry_equiv_pos_site_id
_symmetry_equiv_pos_as_xyz
1 '-z+1/2, -x, y+1/2'
2 '-y+1/2, -z, x+1/2'
3 '-x+1/2, -y, z+1/2'
4 '-z, x+1/2, -y+1/2'
5 '-y, z+1/2, -x+1/2'
6 '-x, y+1/2, -z+1/2'
7 'z+1/2, -x+1/2, -y'
8 'y+1/2, -z+1/2, -x'
9 'x+1/2, -y+1/2, -z'
10 'z, x, y'
11 'y, z, x'
12 'x, y, z'
loop_
_atom_type_symbol
_atom_type_oxidation_number
Ni0+ 0
As0+ 0
S0+ 0
loop_
_atom_site_label
_atom_site_type_symbol
_atom_site_symmetry_multiplicity
_atom_site_Wyckoff_symbol
_atom_site_fract_x
_atom_site_fract_y
_atom_site_fract_z
_atom_site_B_iso_or_equiv
_atom_site_occupancy
_atom_site_attached_hydrogens
Ni1 Ni0+ 4 a 0 0 0 . 1. 0
As1 As0+ 4 a 0.41 0.41 0.41 . 1. 0
S1 S0+ 4 a 0.645 0.645 0.645 . 1. 0
