
#(C) 2017 by FIZ Karlsruhe - Leibniz Institute for Information Infrastructure.  All rights reserved.
data_203137-ICSD
_database_code_ICSD 203137
_audit_creation_date 1990-12-27
_audit_update_record 2013-08-01
_chemical_name_systematic 'Strontium iodide'
_chemical_formula_structural 'Sr I2'
_chemical_formula_sum 'I2 Sr1'
_chemical_name_structure_type SrI2
_exptl_crystal_density_diffrn 4.46
_publ_section_title
'The Structure of a Metastable Form of Sr I2 By the X-Ray Rietveld Procedure'
loop_
_citation_id
_citation_journal_full
_citation_year
_citation_journal_volume
_citation_page_first
_citation_page_last
_citation_journal_id_ASTM
primary 'Journal of the Less-Common Metals' 1989 156 237 245 JCOMAH
loop_
_publ_author_name
'Liu, G.'
'Eick, H.A.'
_cell_length_a 12.328(2)
_cell_length_b 4.920(1)
_cell_length_c 8.384(1)
_cell_angle_alpha 90.
_cell_angle_beta 90.
_cell_angle_gamma 90.
_cell_volume 508.52
_cell_formula_units_Z 4
_symmetry_space_group_name_H-M 'P n m a'
_symmetry_Int_Tables_number 62
_refine_ls_R_factor_all 0.069
loop_
_symmetry_equiv_pos_site_id
_symmetry_equiv_pos_as_xyz
1 'x+1/2, y, -z+1/2'
2 'x, -y+1/2, z'
3 '-x+1/2, y+1/2, z+1/2'
4 '-x, -y, -z'
5 '-x+1/2, -y, z+1/2'
6 '-x, y+1/2, -z'
7 'x+1/2, -y+1/2, -z+1/2'
8 'x, y, z'
loop_
_atom_type_symbol
_atom_type_oxidation_number
Sr2+ 2
I1- -1
loop_
_atom_site_label
_atom_site_type_symbol
_atom_site_symmetry_multiplicity
_atom_site_Wyckoff_symbol
_atom_site_fract_x
_atom_site_fract_y
_atom_site_fract_z
_atom_site_B_iso_or_equiv
_atom_site_occupancy
_atom_site_attached_hydrogens
Sr1 Sr2+ 4 c 0.170(1) 0.25 0.130(5) 0.011(4) 1. 0
I1 I1- 4 c 0.392(1) 0.25 0.377(3) 0.023(4) 1. 0
I2 I1- 4 c 0.380(1) 0.25 0.883(3) 0.032(5) 1. 0
#End of TTdata_203137-ICSD