
#(C) 2017 by FIZ Karlsruhe - Leibniz Institute for Information Infrastructure.  All rights reserved.
data_203162-ICSD
_database_code_ICSD 203162
_audit_creation_date 1990-12-27
_audit_update_record 2006-04-01
_chemical_name_systematic 'Lead hydrogenphosphate(V)'
_chemical_formula_structural 'Pb (H P O4)'
_chemical_formula_sum 'H1 O4 P1 Pb1'
_chemical_name_structure_type PbHPO4
_exptl_crystal_density_diffrn 5.89
_cell_measurement_pressure 2000000.
_publ_section_title

;
Pressure dependence of the crystal structure of lead hydrogen phosphate (Pb H
P O4)
;
loop_
_citation_id
_citation_journal_full
_citation_year
_citation_journal_volume
_citation_page_first
_citation_page_last
_citation_journal_id_ASTM
primary 'Journal of Physics: Condensed Matter' 1989 1 10165 10174 JCOMEL
loop_
_publ_author_name
'Katrusiak, A.'
'Nelmes, R.J.'
_cell_length_a 4.6227(4)
_cell_length_b 6.5142(6)
_cell_length_c 5.7186(6)
_cell_angle_alpha 90.
_cell_angle_beta 96.616(8)
_cell_angle_gamma 90.
_cell_volume 171.06
_cell_formula_units_Z 2
_symmetry_space_group_name_H-M 'P 1 2/c 1'
_symmetry_Int_Tables_number 13
_refine_ls_R_factor_all 0.026
loop_
_symmetry_equiv_pos_site_id
_symmetry_equiv_pos_as_xyz
1 'x, -y, z+1/2'
2 '-x, -y, -z'
3 '-x, y, -z+1/2'
4 'x, y, z'
loop_
_atom_type_symbol
_atom_type_oxidation_number
Pb2+ 2
P5+ 5
O2- -2
H1+ 1
loop_
_atom_site_label
_atom_site_type_symbol
_atom_site_symmetry_multiplicity
_atom_site_Wyckoff_symbol
_atom_site_fract_x
_atom_site_fract_y
_atom_site_fract_z
_atom_site_B_iso_or_equiv
_atom_site_occupancy
_atom_site_attached_hydrogens
Pb1 Pb2+ 2 e 0 0.7924(3) 0.75 0.0088 1. 0
P1 P5+ 2 f 0.5 0.7936(16) 0.25 0.009(1) 1. 0
O1 O2- 4 g 0.373(2) 0.659(4) 0.431(2) 0.014(1) 1. 0
O2 O2- 4 g 0.2571(16) 0.934(5) 0.1270(13) 0.014(1) 1. 0
#End of TTdata_203162-ICSD