
#(C) 2017 by FIZ Karlsruhe - Leibniz Institute for Information Infrastructure.  All rights reserved.
data_20368-ICSD
_database_code_ICSD 20368
_audit_creation_date 1986-09-23
_audit_update_record 2000-07-15
_chemical_name_systematic
'Silver oxide - II - prepared at 11500-12500 mps and 1673+20 k'
_chemical_formula_structural 'Ag2 O'
_chemical_formula_sum 'Ag2 O1'
_chemical_name_structure_type Ag2F
_exptl_crystal_density_diffrn 9.53
_publ_section_title 'About the new modification of Ag2 O with layered structure'
loop_
_citation_id
_citation_journal_full
_citation_year
_citation_journal_volume
_citation_page_first
_citation_page_last
_citation_journal_id_ASTM
primary 'Doklady Akademii Nauk SSSR' 1963 152 853 855 DANKAS
loop_
_publ_author_name
'Kabalkina, S.S.'
'Popova, S.V.'
'Serebrjanaja, N.R.'
'Vereshchagin, L.F.'
_cell_length_a 3.072(3)
_cell_length_b 3.072(3)
_cell_length_c 4.941(4)
_cell_angle_alpha 90.
_cell_angle_beta 90.
_cell_angle_gamma 120.
_cell_volume 40.38
_cell_formula_units_Z 1
_symmetry_space_group_name_H-M 'P -3 m 1'
_symmetry_Int_Tables_number 164
_refine_ls_R_factor_all 0.25
loop_
_symmetry_equiv_pos_site_id
_symmetry_equiv_pos_as_xyz
1 'x-y, -y, -z'
2 '-x, -x+y, -z'
3 'y, x, -z'
4 'x-y, x, -z'
5 'y, -x+y, -z'
6 '-x, -y, -z'
7 '-x+y, y, z'
8 'x, x-y, z'
9 '-y, -x, z'
10 '-x+y, -x, z'
11 '-y, x-y, z'
12 'x, y, z'
loop_
_atom_type_symbol
_atom_type_oxidation_number
O2- -2
Ag1+ 1
loop_
_atom_site_label
_atom_site_type_symbol
_atom_site_symmetry_multiplicity
_atom_site_Wyckoff_symbol
_atom_site_fract_x
_atom_site_fract_y
_atom_site_fract_z
_atom_site_B_iso_or_equiv
_atom_site_occupancy
_atom_site_attached_hydrogens
O1 O2- 1 a 0 0 0 . 1. 0
Ag1 Ag1+ 2 d 0.3333 0.6667 0.25 . 1. 0
#End of TTdata_20368-ICSD