
#(C) 2017 by FIZ Karlsruhe - Leibniz Institute for Information Infrastructure.  All rights reserved.
data_20612-ICSD
_database_code_ICSD 20612
_audit_creation_date 1983-12-31
_audit_update_record 2010-02-01
_chemical_name_systematic 'Yttrium germanide (3/5)'
_chemical_formula_structural 'Y3 Ge5'
_chemical_formula_sum 'Ge5 Y3'
_chemical_name_structure_type Y3Ge5
_exptl_crystal_density_diffrn 6.15
_publ_section_title 'The crystal structure of Y3 Ge5 (Y Ge1.7)'
loop_
_citation_id
_citation_journal_full
_citation_year
_citation_journal_volume
_citation_page_first
_citation_page_last
_citation_journal_id_ASTM
primary Kristallografiya 1983 28 260 263 KRISAJ
loop_
_publ_author_name
'Bruskov, V.A.'
'Bodak, O.I.'
'Pecharskii, V.K.'
'Gladyshevskii, E.I.'
'Muratova, L.A.'
_cell_length_a 5.746(2)
_cell_length_b 17.284(5)
_cell_length_c 13.696(3)
_cell_angle_alpha 90.
_cell_angle_beta 90.
_cell_angle_gamma 90.
_cell_volume 1360.2
_cell_formula_units_Z 8
_symmetry_space_group_name_H-M 'F d d 2'
_symmetry_Int_Tables_number 43
_refine_ls_R_factor_all 0.061
loop_
_symmetry_equiv_pos_site_id
_symmetry_equiv_pos_as_xyz
1 'x+1/4, -y+1/4, z+1/4'
2 '-x+1/4, y+1/4, z+1/4'
3 '-x, -y, z'
4 'x, y, z'
5 'x+1/4, -y+3/4, z+3/4'
6 '-x+1/4, y+3/4, z+3/4'
7 '-x, -y+1/2, z+1/2'
8 'x, y+1/2, z+1/2'
9 'x+3/4, -y+1/4, z+3/4'
10 '-x+3/4, y+1/4, z+3/4'
11 '-x+1/2, -y, z+1/2'
12 'x+1/2, y, z+1/2'
13 'x+3/4, -y+3/4, z+1/4'
14 '-x+3/4, y+3/4, z+1/4'
15 '-x+1/2, -y+1/2, z'
16 'x+1/2, y+1/2, z'
loop_
_atom_type_symbol
_atom_type_oxidation_number
Y0+ 0
Ge0+ 0
loop_
_atom_site_label
_atom_site_type_symbol
_atom_site_symmetry_multiplicity
_atom_site_Wyckoff_symbol
_atom_site_fract_x
_atom_site_fract_y
_atom_site_fract_z
_atom_site_B_iso_or_equiv
_atom_site_occupancy
_atom_site_attached_hydrogens
Y1 Y0+ 16 b 0.2662(11) 0.0820(4) 0.25 . 1. 0
Y2 Y0+ 8 a 0 0 0.4924(7) . 1. 0
Ge1 Ge0+ 8 a 0 0 0.9437(6) . 1. 0
Ge2 Ge0+ 16 b 0.4997(11) 0.1632(3) 0.0841(4) . 1. 0
Ge3 Ge0+ 16 b 0.0629(9) 0.1865(3) 0.4019(5) . 1. 0
loop_
_atom_site_aniso_label
_atom_site_aniso_type_symbol
_atom_site_aniso_beta_11
_atom_site_aniso_beta_22
_atom_site_aniso_beta_33
_atom_site_aniso_beta_12
_atom_site_aniso_beta_13
_atom_site_aniso_beta_23
Y1 Y0+ 0.6(2) 0.8(2) 0.1(1) -.4(2) 0.1(2) -.1(1)
Y2 Y0+ 0.5(4) 0.5(3) 0.1(2) -.3(3) 0 0
Ge1 Ge0+ 1.0(3) 0.9(3) 0.3(2) 0.1(3) 0 0
Ge2 Ge0+ 0.3(2) 0.3(2) 0.5(2) 0.1(2) 0.2(2) 0.1(2)
Ge3 Ge0+ 0.7(2) 0.8(2) 0.6(2) 0.5(2) -.2(2) -.2(2)
#End of TTdata_20612-ICSD