
#(C) 2017 by FIZ Karlsruhe - Leibniz Institute for Information Infrastructure.  All rights reserved.
data_20666-ICSD
_database_code_ICSD 20666
_audit_creation_date 1980-01-01
_audit_update_record 2007-08-01
_chemical_name_systematic 'Calcium dibismuth diniobium oxide'
_chemical_formula_structural 'Ca Bi2 Nb2 O9'
_chemical_formula_sum 'Bi2 Ca1 Nb2 O9'
_chemical_name_structure_type Bi3NbTiO9
_exptl_crystal_density_diffrn 7.04
_publ_section_title

;
The X-ray analysis of structure of some new seignettoelectrics with a layered
structure.
;
loop_
_citation_id
_citation_journal_full
_citation_year
_citation_journal_volume
_citation_page_first
_citation_page_last
_citation_journal_id_ASTM
primary 'Izvestiya Akademii Nauk SSSR, Seriya Fizicheskaya' 1960 24 1198 1202
IANFAY
loop_
_publ_author_name
'Ismailzade, I.G.'
_cell_length_a 5.442
_cell_length_b 5.4825
_cell_length_c 24.92
_cell_angle_alpha 90.
_cell_angle_beta 90.
_cell_angle_gamma 90.
_cell_volume 743.51
_cell_formula_units_Z 4
_symmetry_space_group_name_H-M 'F m m m'
_symmetry_Int_Tables_number 69
loop_
_symmetry_equiv_pos_site_id
_symmetry_equiv_pos_as_xyz
1 'x, y, -z'
2 'x, -y, z'
3 '-x, y, z'
4 '-x, -y, -z'
5 '-x, -y, z'
6 '-x, y, -z'
7 'x, -y, -z'
8 'x, y, z'
9 'x, y+1/2, -z+1/2'
10 'x, -y+1/2, z+1/2'
11 '-x, y+1/2, z+1/2'
12 '-x, -y+1/2, -z+1/2'
13 '-x, -y+1/2, z+1/2'
14 '-x, y+1/2, -z+1/2'
15 'x, -y+1/2, -z+1/2'
16 'x, y+1/2, z+1/2'
17 'x+1/2, y, -z+1/2'
18 'x+1/2, -y, z+1/2'
19 '-x+1/2, y, z+1/2'
20 '-x+1/2, -y, -z+1/2'
21 '-x+1/2, -y, z+1/2'
22 '-x+1/2, y, -z+1/2'
23 'x+1/2, -y, -z+1/2'
24 'x+1/2, y, z+1/2'
25 'x+1/2, y+1/2, -z'
26 'x+1/2, -y+1/2, z'
27 '-x+1/2, y+1/2, z'
28 '-x+1/2, -y+1/2, -z'
29 '-x+1/2, -y+1/2, z'
30 '-x+1/2, y+1/2, -z'
31 'x+1/2, -y+1/2, -z'
32 'x+1/2, y+1/2, z'
loop_
_atom_type_symbol
_atom_type_oxidation_number
Ca2+ 2
Bi3+ 3
Nb5+ 5
O2- -2
loop_
_atom_site_label
_atom_site_type_symbol
_atom_site_symmetry_multiplicity
_atom_site_Wyckoff_symbol
_atom_site_fract_x
_atom_site_fract_y
_atom_site_fract_z
_atom_site_B_iso_or_equiv
_atom_site_occupancy
_atom_site_attached_hydrogens
Ca1 Ca2+ 4 b 0 0 0.5 . 1. 0
Bi1 Bi3+ 8 i 0 0 0.2 . 1. 0
Nb1 Nb5+ 8 i 0 0.5 0.422 . 1. 0
O1 O2- 4 a 0 0 0 . 1. 0
O2 O2- 8 i 0 0.5 0.156 . 1. 0
O3 O2- 8 f 0.25 0.25 0.25 . 1. 0
O4 O2- 16 j 0.25 0.25 0.079 . 1. 0
#End of TTdata_20666-ICSD