
#(C) 2017 by FIZ Karlsruhe - Leibniz Institute for Information Infrastructure.  All rights reserved.
data_2186-ICSD
_database_code_ICSD 2186
_audit_creation_date 1980-01-01
_audit_update_record 2012-08-01
_chemical_name_systematic 'Rhodium telluride (3/8)'
_chemical_formula_structural 'Rh3 Te8'
_chemical_formula_sum 'Rh3 Te8'
_chemical_name_structure_type Rh3Te8
_exptl_crystal_density_diffrn 8.29
_publ_section_title 'Pyrite-like phases in the Rh-Te system'
loop_
_citation_id
_citation_journal_full
_citation_year
_citation_journal_volume
_citation_page_first
_citation_page_last
_citation_journal_id_ASTM
primary 'Acta Chemica Scandinavica, Series A: (28,1974-)' 1978 32 209 217 ACAPCT
loop_
_publ_author_name
'Kjekshus, A.'
'Rakke, T.'
'Andresen, A.F.'
_cell_length_a 6.4255(4)
_cell_length_b 6.4255(4)
_cell_length_c 6.4255(4)
_cell_angle_alpha 90.724(7)
_cell_angle_beta 90.724(7)
_cell_angle_gamma 90.724(7)
_cell_volume 265.23
_cell_formula_units_Z 1
_symmetry_space_group_name_H-M 'R -3 R'
_symmetry_Int_Tables_number 148
_refine_ls_R_factor_all 0.038
loop_
_symmetry_equiv_pos_site_id
_symmetry_equiv_pos_as_xyz
1 '-z, -x, -y'
2 '-y, -z, -x'
3 '-x, -y, -z'
4 'z, x, y'
5 'y, z, x'
6 'x, y, z'
loop_
_atom_type_symbol
_atom_type_oxidation_number
Rh2+ 2.67
Te1- -1
loop_
_atom_site_label
_atom_site_type_symbol
_atom_site_symmetry_multiplicity
_atom_site_Wyckoff_symbol
_atom_site_fract_x
_atom_site_fract_y
_atom_site_fract_z
_atom_site_B_iso_or_equiv
_atom_site_occupancy
_atom_site_attached_hydrogens
Rh1 Rh2+ 3 e 0 0.5 0.5 . 1. 0
Te1 Te1- 2 c 0.3683(12) 0.3683(12) 0.3683(12) . 1. 0
Te2 Te1- 6 f 0.8823(9) 0.1279(9) 0.6326(9) . 1. 0
#End of TTdata_2186-ICSD