
#(C) 2017 by FIZ Karlsruhe - Leibniz Institute for Information Infrastructure.  All rights reserved.
data_22062-ICSD
_database_code_ICSD 22062
_audit_creation_date 1980-01-01
_audit_update_record 1985-05-08
_chemical_name_systematic 'Potassium hydrogentetraoxotellurate'
_chemical_formula_structural 'K Te O3 (O H)'
_chemical_formula_sum 'H1 K1 O4 Te1'
_exptl_crystal_density_diffrn 3.93
_publ_section_title 'Darstellung und kristallstruktur von K Te O3 (O H)'
loop_
_citation_id
_citation_journal_full
_citation_year
_citation_journal_volume
_citation_page_first
_citation_page_last
_citation_journal_id_ASTM
primary Naturwissenschaften 1964 51 552 553 NATWAY
loop_
_publ_author_name
'Lammers, P.'
_cell_length_a 6.51
_cell_length_b 11.69
_cell_length_c 5.15
_cell_angle_alpha 90.
_cell_angle_beta 93.15
_cell_angle_gamma 90.
_cell_volume 391.33
_cell_formula_units_Z 4
_symmetry_space_group_name_H-M 'I 1 2/a 1'
_symmetry_Int_Tables_number 15
_refine_ls_R_factor_all 0.077
loop_
_symmetry_equiv_pos_site_id
_symmetry_equiv_pos_as_xyz
1 'x+1/2, -y, z'
2 '-x, -y, -z'
3 '-x+1/2, y, -z'
4 'x, y, z'
5 'x, -y+1/2, z+1/2'
6 '-x+1/2, -y+1/2, -z+1/2'
7 '-x, y+1/2, -z+1/2'
8 'x+1/2, y+1/2, z+1/2'
loop_
_atom_type_symbol
_atom_type_oxidation_number
Te6+ 6
K1+ 1
O2- -2
H1+ 1
loop_
_atom_site_label
_atom_site_type_symbol
_atom_site_symmetry_multiplicity
_atom_site_Wyckoff_symbol
_atom_site_fract_x
_atom_site_fract_y
_atom_site_fract_z
_atom_site_B_iso_or_equiv
_atom_site_occupancy
_atom_site_attached_hydrogens
Te1 Te6+ 4 e 0.25 0.178 0 . 1. 0
K1 K1+ 4 e 0.75 0.409 0 . 1. 0
O1 O2- 8 f 0.406 0.195 0.689 . 1. 0
O2 O2- 8 f 0.424 0.072 0.163 . 1. 0
#End of TTdata_22062-ICSD