
#(C) 2017 by FIZ Karlsruhe - Leibniz Institute for Information Infrastructure.  All rights reserved.
data_22074-ICSD
_database_code_ICSD 22074
_audit_creation_date 1986-10-15
_chemical_name_systematic 'Tricesium diiron(III) chloride'
_chemical_formula_structural 'Cs3 Fe2 Cl9'
_chemical_formula_sum 'Cl9 Cs3 Fe2'
_chemical_name_structure_type Cs3Bi2Br9
_exptl_crystal_density_diffrn 3.37
_publ_section_title 'The crystal structure of Cs3 Fe2 Cl9 and of Cs3 Sb2 Cl9'
loop_
_citation_id
_citation_journal_full
_citation_year
_citation_journal_volume
_citation_page_first
_citation_page_last
_citation_journal_id_ASTM
primary 'Bulletin of the Chemical Society of Japan' 1954 27 244 244 BCSJA8
loop_
_publ_author_name
'Yamatera, H.'
'Nakatsu, K.'
_cell_length_a 7.28(5)
_cell_length_b 7.28(5)
_cell_length_c 8.90(5)
_cell_angle_alpha 90.
_cell_angle_beta 90.
_cell_angle_gamma 120.
_cell_volume 408.49
_cell_formula_units_Z 1
_symmetry_space_group_name_H-M 'P -3 m 1'
_symmetry_Int_Tables_number 164
loop_
_symmetry_equiv_pos_site_id
_symmetry_equiv_pos_as_xyz
1 'x-y, -y, -z'
2 '-x, -x+y, -z'
3 'y, x, -z'
4 'x-y, x, -z'
5 'y, -x+y, -z'
6 '-x, -y, -z'
7 '-x+y, y, z'
8 'x, x-y, z'
9 '-y, -x, z'
10 '-x+y, -x, z'
11 '-y, x-y, z'
12 'x, y, z'
loop_
_atom_type_symbol
_atom_type_oxidation_number
Cs1+ 1
Fe3+ 3
Cl1- -1
loop_
_atom_site_label
_atom_site_type_symbol
_atom_site_symmetry_multiplicity
_atom_site_Wyckoff_symbol
_atom_site_fract_x
_atom_site_fract_y
_atom_site_fract_z
_atom_site_B_iso_or_equiv
_atom_site_occupancy
_atom_site_attached_hydrogens
Cs1 Cs1+ 1 a 0 0 0 . 1. 0
Cs2 Cs1+ 2 d 0.3333 0.6667 0.3333 . 1. 0
Fe1 Fe3+ 2 d 0.3333 0.6667 -.1667 . 1. 0
Cl1 Cl1- 3 e 0.5 0 0 . 1. 0
Cl2 Cl1- 6 i 0.1667 -.1667 -.3333 . 1. 0
#End of TTdata_22074-ICSD