
#(C) 2017 by FIZ Karlsruhe - Leibniz Institute for Information Infrastructure.  All rights reserved.
data_22128-ICSD
_database_code_ICSD 22128
_audit_creation_date 1986-10-16
_audit_update_record 2012-02-01
_chemical_name_systematic 'Ammonium triiodide'
_chemical_formula_structural '(N H4) I3'
_chemical_formula_sum 'H4 I3 N1'
_chemical_name_structure_type NH4I3
_exptl_crystal_density_diffrn 3.82
_publ_section_title 'Refinement of the structure of ammonium triiodide, N H4 I3'
loop_
_citation_id
_citation_journal_full
_citation_year
_citation_journal_volume
_citation_page_first
_citation_page_last
_citation_journal_id_ASTM
primary 'Acta Crystallographica B (24,1968-38,1982)' 1970 26 904 906 ACBCAR
loop_
_publ_author_name
'Cheesman, G.H.'
'Finney, A.J.T.'
_cell_length_a 10.819
_cell_length_b 6.64
_cell_length_c 9.662
_cell_angle_alpha 90.
_cell_angle_beta 90.
_cell_angle_gamma 90.
_cell_volume 694.1
_cell_formula_units_Z 4
_symmetry_space_group_name_H-M 'P n m a'
_symmetry_Int_Tables_number 62
_refine_ls_R_factor_all 0.183
loop_
_symmetry_equiv_pos_site_id
_symmetry_equiv_pos_as_xyz
1 'x+1/2, y, -z+1/2'
2 'x, -y+1/2, z'
3 '-x+1/2, y+1/2, z+1/2'
4 '-x, -y, -z'
5 '-x+1/2, -y, z+1/2'
6 '-x, y+1/2, -z'
7 'x+1/2, -y+1/2, -z+1/2'
8 'x, y, z'
loop_
_atom_type_symbol
_atom_type_oxidation_number
N3- -3
I1- -1
I0+ 0
H1+ 1
loop_
_atom_site_label
_atom_site_type_symbol
_atom_site_symmetry_multiplicity
_atom_site_Wyckoff_symbol
_atom_site_fract_x
_atom_site_fract_y
_atom_site_fract_z
_atom_site_B_iso_or_equiv
_atom_site_occupancy
_atom_site_attached_hydrogens
N1 N3- 4 c 0.8352(59) 0.25 0.4704(68) . 1. 0
I1 I1- 4 c 0.1569(3) 0.25 0.3471(3) . 1. 0
I2 I0+ 4 c 0.3812(2) 0.25 0.5489(3) . 1. 0
I3 I0+ 4 c 0.5784(3) 0.25 0.7352(3) . 1. 0
loop_
_atom_site_aniso_label
_atom_site_aniso_type_symbol
_atom_site_aniso_U_11
_atom_site_aniso_U_22
_atom_site_aniso_U_33
_atom_site_aniso_U_12
_atom_site_aniso_U_13
_atom_site_aniso_U_23
N1 N3- 0.0646 0.0614 0.0652 0 0 0
I1 I1- 0.0376 0.0306 0.0193 0 0 -0.0116
I2 I0+ 0.0343 0.0317 0.0175 0 0 0
I3 I0+ 0.036 0.0392 0.0258 0 0 -0.0175
#End of TTdata_22128-ICSD