
data_22242-ICSD
_database_code_ICSD 22242
_audit_creation_date 1986-10-17
_audit_update_record 2012-08-01
_chemical_name_systematic 'Mercury iodide'
_chemical_formula_structural 'Hg I2'
_chemical_formula_sum 'Hg1 I2'
_chemical_name_structure_type HgI2(oS12)
_exptl_crystal_density_diffrn 6.23
_cell_length_a 4.702(5)
_cell_length_b 7.432(5)
_cell_length_c 13.872(7)
_cell_angle_alpha 90.
_cell_angle_beta 90.
_cell_angle_gamma 90.
_cell_volume 484.76
_cell_formula_units_Z 4
_symmetry_space_group_name_H-M 'C m c 21'
_symmetry_Int_Tables_number 36
_refine_ls_R_factor_all 0.1
loop_
_symmetry_equiv_pos_site_id
_symmetry_equiv_pos_as_xyz
1 'x, -y, z+1/2'
2 '-x, -y, z+1/2'
3 '-x, y, z'
4 'x, y, z'
5 'x+1/2, -y+1/2, z+1/2'
6 '-x+1/2, -y+1/2, z+1/2'
7 '-x+1/2, y+1/2, z'
8 'x+1/2, y+1/2, z'
loop_
_atom_type_symbol
_atom_type_oxidation_number
Hg2+ 2
I1- -1
loop_
_atom_site_label
_atom_site_type_symbol
_atom_site_symmetry_multiplicity
_atom_site_Wyckoff_symbol
_atom_site_fract_x
_atom_site_fract_y
_atom_site_fract_z
_atom_site_B_iso_or_equiv
_atom_site_occupancy
_atom_site_attached_hydrogens
Hg1 Hg2+ 4 a 0 0.3433(6) 0.9989(5) . 1. 0
I1 I1- 4 a 0 0.0916(7) 0.1311(4) . 1. 0
I2 I1- 4 a 0 0.4059(6) 0.3667(3) . 1. 0
loop_
_atom_site_aniso_label
_atom_site_aniso_type_symbol
_atom_site_aniso_beta_11
_atom_site_aniso_beta_22
_atom_site_aniso_beta_33
_atom_site_aniso_beta_12
_atom_site_aniso_beta_13
_atom_site_aniso_beta_23
Hg1 Hg2+ 0.047 0.015 0.006 0 0.016 0
I1 I1- 0.037 0.004 0.002 0 0.005 0
I2 I1- 0.028 0.005 0.002 0.008 0 0
