
#(C) 2017 by FIZ Karlsruhe - Leibniz Institute for Information Infrastructure.  All rights reserved.
data_2292-ICSD
_database_code_ICSD 2292
_audit_creation_date 1980-01-01
_audit_update_record 2012-02-01
_chemical_name_systematic 'Vanadium(IV) diantimony oxide'
_chemical_formula_structural 'V O Sb2 O4'
_chemical_formula_sum 'O5 Sb2 V1'
_chemical_name_structure_type SbVO5
_exptl_crystal_density_diffrn 5.24
_publ_section_title

;
Un noveau compose de l'antimoine III:  V O Sb2 O4. Influence stereochimique de
la paire non liee E, relations structurales, mecanismes de la reaction
chimique
;
loop_
_citation_id
_citation_journal_full
_citation_year
_citation_journal_volume
_citation_page_first
_citation_page_last
_citation_journal_id_ASTM
primary 'Journal of Solid State Chemistry' 1976 19 205 212 JSSCBI
loop_
_publ_author_name
'Darriet, B.'
'Bovin, J.O.'
'Galy, J.'
_cell_length_a 18.03(1)
_cell_length_b 4.800(2)
_cell_length_c 5.497(2)
_cell_angle_alpha 90.
_cell_angle_beta 94.58(10)
_cell_angle_gamma 90.
_cell_volume 474.21
_cell_formula_units_Z 4
_symmetry_space_group_name_H-M 'C 1 2/c 1'
_symmetry_Int_Tables_number 15
_refine_ls_R_factor_all 0.079
loop_
_symmetry_equiv_pos_site_id
_symmetry_equiv_pos_as_xyz
1 'x, -y, z+1/2'
2 '-x, -y, -z'
3 '-x, y, -z+1/2'
4 'x, y, z'
5 'x+1/2, -y+1/2, z+1/2'
6 '-x+1/2, -y+1/2, -z'
7 '-x+1/2, y+1/2, -z+1/2'
8 'x+1/2, y+1/2, z'
loop_
_atom_type_symbol
_atom_type_oxidation_number
Sb3+ 3
V4+ 4
O2- -2
loop_
_atom_site_label
_atom_site_type_symbol
_atom_site_symmetry_multiplicity
_atom_site_Wyckoff_symbol
_atom_site_fract_x
_atom_site_fract_y
_atom_site_fract_z
_atom_site_B_iso_or_equiv
_atom_site_occupancy
_atom_site_attached_hydrogens
Sb1 Sb3+ 8 f 0.1615(3) 0.7183(9) 0.1507(8) 0.19 1. 0
V1 V4+ 4 e 0 0.373(9) 0.25 0.8 1. 0
O1 O2- 4 e 0 0.041(23) 0.25 2.9 1. 0
O2 O2- 8 f 0.071(2) 0.475(9) 0.025(7) -.2 1. 0
O3 O2- 8 f 0.203(3) 0.416(11) 0.350(9) 0.9 1. 0
#End of TTdata_2292-ICSD