
#(C) 2017 by FIZ Karlsruhe - Leibniz Institute for Information Infrastructure.  All rights reserved.
data_23169-ICSD
_database_code_ICSD 23169
_audit_creation_date 1986-10-20
_audit_update_record 2003-10-01
_chemical_name_systematic 'Palladium iodide - alpha, HT'
_chemical_formula_structural 'Pd I2'
_chemical_formula_sum 'I2 Pd1'
_chemical_name_structure_type Marcasite-FeS2(oP6)
_exptl_crystal_density_diffrn 5.88
_publ_section_title 'Die Polymorphie des Palladium(II)-Jodids'
loop_
_citation_id
_citation_journal_full
_citation_year
_citation_journal_volume
_citation_page_first
_citation_page_last
_citation_journal_id_ASTM
primary Naturwissenschaften 1967 54 615 615 NATWAY
loop_
_publ_author_name
'Thiele, G.'
'Brodersen, K.'
'Kruse, E.'
'Holle, B.'
_cell_length_a 6.69
_cell_length_b 8.
_cell_length_c 3.8
_cell_angle_alpha 90.
_cell_angle_beta 90.
_cell_angle_gamma 90.
_cell_volume 203.38
_cell_formula_units_Z 2
_symmetry_space_group_name_H-M 'P n n m'
_symmetry_Int_Tables_number 58
_refine_ls_R_factor_all 0.087
loop_
_symmetry_equiv_pos_site_id
_symmetry_equiv_pos_as_xyz
1 'x+1/2, -y+1/2, z+1/2'
2 '-x+1/2, y+1/2, z+1/2'
3 'x, y, -z'
4 '-x, -y, -z'
5 '-x+1/2, y+1/2, -z+1/2'
6 'x+1/2, -y+1/2, -z+1/2'
7 '-x, -y, z'
8 'x, y, z'
loop_
_atom_type_symbol
_atom_type_oxidation_number
Pd2+ 2
I1- -1
loop_
_atom_site_label
_atom_site_type_symbol
_atom_site_symmetry_multiplicity
_atom_site_Wyckoff_symbol
_atom_site_fract_x
_atom_site_fract_y
_atom_site_fract_z
_atom_site_B_iso_or_equiv
_atom_site_occupancy
_atom_site_attached_hydrogens
Pd1 Pd2+ 2 a 0 0 0 . 1. 0
I1 I1- 4 g 0.287 0.369 0 . 1. 0
#End of TTdata_23169-ICSD