
#(C) 2017 by FIZ Karlsruhe - Leibniz Institute for Information Infrastructure.  All rights reserved.
data_23226-ICSD
_database_code_ICSD 23226
_audit_creation_date 1980-01-01
_audit_update_record 2006-04-01
_chemical_name_systematic 'Gallium magnesium (2/1)'
_chemical_formula_structural 'Ga2 Mg'
_chemical_formula_sum 'Ga2 Mg1'
_chemical_name_structure_type FeSmB4-CrYB4
_exptl_crystal_density_diffrn 4.76
_publ_section_title 'The crystal structure of Ga2 Mg'
loop_
_citation_id
_citation_journal_full
_citation_year
_citation_journal_volume
_citation_page_first
_citation_page_last
_citation_journal_id_ASTM
primary 'Acta Crystallographica B (24,1968-38,1982)' 1969 25 549 553 ACBCAR
loop_
_publ_author_name
'Smith, G.S.'
'Mucker, K.F.'
'Johnson, Q.'
'Wood, D.H.'
_cell_length_a 6.802(14)
_cell_length_b 16.346(33)
_cell_length_c 4.111(8)
_cell_angle_alpha 90.
_cell_angle_beta 90.
_cell_angle_gamma 90.
_cell_volume 457.08
_cell_formula_units_Z 8
_symmetry_space_group_name_H-M 'P b a m'
_symmetry_Int_Tables_number 55
_refine_ls_R_factor_all 0.051
loop_
_symmetry_equiv_pos_site_id
_symmetry_equiv_pos_as_xyz
1 'x+1/2, -y+1/2, z'
2 '-x+1/2, y+1/2, z'
3 'x, y, -z'
4 '-x, -y, -z'
5 '-x+1/2, y+1/2, -z'
6 'x+1/2, -y+1/2, -z'
7 '-x, -y, z'
8 'x, y, z'
loop_
_atom_type_symbol
_atom_type_oxidation_number
Ga0+ 0
Mg0+ 0
loop_
_atom_site_label
_atom_site_type_symbol
_atom_site_symmetry_multiplicity
_atom_site_Wyckoff_symbol
_atom_site_fract_x
_atom_site_fract_y
_atom_site_fract_z
_atom_site_B_iso_or_equiv
_atom_site_occupancy
_atom_site_attached_hydrogens
Ga1 Ga0+ 4 g 0.4013(4) 0.4335(2) 0 0.9(1) 1. 0
Ga2 Ga0+ 4 h 0.4097(4) 0.1902(2) 0.5 0.8(1) 1. 0
Ga3 Ga0+ 4 h 0.1445(4) 0.4375(2) 0.5 0.9(1) 1. 0
Ga4 Ga0+ 4 h 0.0287(4) 0.1580(2) 0.5 0.9(1) 1. 0
Mg1 Mg0+ 4 g 0.3241(13) 0.0770(5) 0 1.0(2) 1. 0
Mg2 Mg0+ 4 g 0.2019(12) 0.2804(5) 0 1.0(2) 1. 0
#End of TTdata_23226-ICSD