
#(C) 2017 by FIZ Karlsruhe - Leibniz Institute for Information Infrastructure.  All rights reserved.
data_23403-ICSD
_database_code_ICSD 23403
_audit_creation_date 1980-01-01
_chemical_name_systematic 'Titanium nitride (2/1) - alpha'
_chemical_formula_structural 'Ti2 N'
_chemical_formula_sum 'N1 Ti2'
_chemical_name_structure_type Anatase-TiO2
_exptl_crystal_density_diffrn 4.83
_publ_section_title
'Etude et structure d'une nouvelle phase du sous-nitrure de titane Ti2 N'
loop_
_citation_id
_citation_journal_full
_citation_year
_citation_journal_volume
_citation_page_first
_citation_page_last
_citation_journal_id_ASTM
primary

;
Comptes Rendus Hebdomadaires des Seances de l'Academie des Sciences, Serie C,
Sciences Chimiques (1966-)
; 1969 268 1132 1135 CHDCAQ
loop_
_publ_author_name
'Lobier, G.'
'Marcon, J.P.'
_cell_length_a 4.140(2)
_cell_length_b 4.140(2)
_cell_length_c 8.805(5)
_cell_angle_alpha 90.
_cell_angle_beta 90.
_cell_angle_gamma 90.
_cell_volume 150.91
_cell_formula_units_Z 4
_symmetry_space_group_name_H-M 'I 41/a m d Z'
_symmetry_Int_Tables_number 141
_refine_ls_R_factor_all 0.049
loop_
_symmetry_equiv_pos_site_id
_symmetry_equiv_pos_as_xyz
1 'y+1/4, x+3/4, -z+1/4'
2 'y+1/4, -x+3/4, -z+1/4'
3 'x, y+1/2, -z'
4 'x, -y, -z'
5 '-y+3/4, x+3/4, -z+1/4'
6 '-y+3/4, -x+3/4, -z+1/4'
7 '-x, y+1/2, -z'
8 '-x, -y, -z'
9 '-y+3/4, -x+1/4, z+3/4'
10 '-y+3/4, x+1/4, z+3/4'
11 '-x, -y+1/2, z'
12 '-x, y, z'
13 'y+1/4, -x+1/4, z+3/4'
14 'y+1/4, x+1/4, z+3/4'
15 'x, -y+1/2, z'
16 'x, y, z'
17 'y+3/4, x+1/4, -z+3/4'
18 'y+3/4, -x+1/4, -z+3/4'
19 'x+1/2, y, -z+1/2'
20 'x+1/2, -y+1/2, -z+1/2'
21 '-y+1/4, x+1/4, -z+3/4'
22 '-y+1/4, -x+1/4, -z+3/4'
23 '-x+1/2, y, -z+1/2'
24 '-x+1/2, -y+1/2, -z+1/2'
25 '-y+1/4, -x+3/4, z+1/4'
26 '-y+1/4, x+3/4, z+1/4'
27 '-x+1/2, -y, z+1/2'
28 '-x+1/2, y+1/2, z+1/2'
29 'y+3/4, -x+3/4, z+1/4'
30 'y+3/4, x+3/4, z+1/4'
31 'x+1/2, -y, z+1/2'
32 'x+1/2, y+1/2, z+1/2'
loop_
_atom_type_symbol
_atom_type_oxidation_number
Ti0+ 0
N0+ 0
loop_
_atom_site_label
_atom_site_type_symbol
_atom_site_symmetry_multiplicity
_atom_site_Wyckoff_symbol
_atom_site_fract_x
_atom_site_fract_y
_atom_site_fract_z
_atom_site_B_iso_or_equiv
_atom_site_occupancy
_atom_site_attached_hydrogens
Ti1 Ti0+ 8 e 0 0.25 0.140(3) . 1. 0
N1 N0+ 4 b 0 0.25 0.375 . 1. 0
#End of TTdata_23403-ICSD