
#(C) 2017 by FIZ Karlsruhe - Leibniz Institute for Information Infrastructure.  All rights reserved.
data_23420-ICSD
_database_code_ICSD 23420
_audit_creation_date 1980-01-01
_chemical_name_systematic 'Strontium tetrathiogermanate'
_chemical_formula_structural 'Sr2 Ge S4'
_chemical_formula_sum 'Ge1 S4 Sr2'
_chemical_name_structure_type K2ZnBr4
_exptl_crystal_density_diffrn 3.56
_publ_section_title
'Structure cristalline de l'orthothiogermanate de strontium, Sr2 Ge S4'
loop_
_citation_id
_citation_journal_full
_citation_year
_citation_journal_volume
_citation_page_first
_citation_page_last
_citation_journal_id_ASTM
primary

;
Comptes Rendus Hebdomadaires des Seances de l'Academie des Sciences, Serie C,
Sciences Chimiques (1966-)
; 1970 270 1873 1874 CHDCAQ
loop_
_publ_author_name
'Ribes, M.'
'Philippot, E.'
'Maurin, M.'
_cell_length_a 8.231
_cell_length_b 6.729
_cell_length_c 6.672
_cell_angle_alpha 90.
_cell_angle_beta 108.21
_cell_angle_gamma 90.
_cell_volume 351.03
_cell_formula_units_Z 2
_symmetry_space_group_name_H-M 'P 1 21/m 1'
_symmetry_Int_Tables_number 11
_refine_ls_R_factor_all 0.11
loop_
_symmetry_equiv_pos_site_id
_symmetry_equiv_pos_as_xyz
1 'x, -y+1/2, z'
2 '-x, -y, -z'
3 '-x, y+1/2, -z'
4 'x, y, z'
loop_
_atom_type_symbol
_atom_type_oxidation_number
Sr2+ 2
Ge4+ 4
S2- -2
loop_
_atom_site_label
_atom_site_type_symbol
_atom_site_symmetry_multiplicity
_atom_site_Wyckoff_symbol
_atom_site_fract_x
_atom_site_fract_y
_atom_site_fract_z
_atom_site_B_iso_or_equiv
_atom_site_occupancy
_atom_site_attached_hydrogens
Sr1 Sr2+ 2 e 0.0515(2) 0.25 0.7197(3) 0.429 1. 0
Sr2 Sr2+ 2 e 0.5677(2) 0.25 0.7681(3) 0.495 1. 0
Ge1 Ge4+ 2 e 0.2005(2) 0.25 0.2749(3) 0.666 1. 0
S1 S2- 2 e -.0753(6) 0.25 0.0984(8) 1.051 1. 0
S2 S2- 2 e 0.3731(5) 0.25 0.0791(6) 0.377 1. 0
S3 S2- 4 f 0.2606(3) -.0020(4) 0.4943(5) 0.353 1. 0
#End of TTdata_23420-ICSD