
#(C) 2017 by FIZ Karlsruhe - Leibniz Institute for Information Infrastructure.  All rights reserved.
data_23423-ICSD
_database_code_ICSD 23423
_audit_creation_date 1980-01-01
_audit_update_record 1987-10-13
_chemical_name_systematic 'Divanadium dirhenium(VI) oxide'
_chemical_formula_structural 'V2 Re2 O11'
_chemical_formula_sum 'O11 Re2 V2'
_exptl_crystal_density_diffrn 5.88
_publ_section_title 'Structure cristalline de la phase V2 Re2 O11'
loop_
_citation_id
_citation_journal_full
_citation_year
_citation_journal_volume
_citation_page_first
_citation_page_last
_citation_journal_id_ASTM
primary

;
Comptes Rendus Hebdomadaires des Seances de l'Academie des Sciences, Serie C,
Sciences Chimiques (1966-)
; 1970 271 127 129 CHDCAQ
loop_
_publ_author_name
'Lee, M.-R.'
_cell_length_a 5.68
_cell_length_b 14.65
_cell_length_c 8.83
_cell_angle_alpha 90.
_cell_angle_beta 90.
_cell_angle_gamma 90.
_cell_volume 734.76
_cell_formula_units_Z 4
_symmetry_space_group_name_H-M 'C m c 21'
_symmetry_Int_Tables_number 36
_refine_ls_R_factor_all 0.18
loop_
_symmetry_equiv_pos_site_id
_symmetry_equiv_pos_as_xyz
1 'x, -y, z+1/2'
2 '-x, -y, z+1/2'
3 '-x, y, z'
4 'x, y, z'
5 'x+1/2, -y+1/2, z+1/2'
6 '-x+1/2, -y+1/2, z+1/2'
7 '-x+1/2, y+1/2, z'
8 'x+1/2, y+1/2, z'
loop_
_atom_type_symbol
_atom_type_oxidation_number
V5+ 5
Re6+ 6
O2- -2
loop_
_atom_site_label
_atom_site_type_symbol
_atom_site_symmetry_multiplicity
_atom_site_Wyckoff_symbol
_atom_site_fract_x
_atom_site_fract_y
_atom_site_fract_z
_atom_site_B_iso_or_equiv
_atom_site_occupancy
_atom_site_attached_hydrogens
V1 V5+ 4 a 0.5 0.274 0.317 1.53 1. 0
V2 V5+ 4 a 0.5 0.116 0.4 1.53 1. 0
Re1 Re6+ 4 a 0 0.024 0 0.64 1. 0
Re2 Re6+ 4 a 0 0.274 0.317 0.64 1. 0
O1 O2- 4 a 0.5 0.03 0.29 2.46 1. 0
O2 O2- 4 a 0.5 0.4 0.37 3.53 1. 0
O3 O2- 4 a 0.5 0.18 0.19 4.04 1. 0
O4 O2- 4 a 0 0.31 0.1 4.03 1. 0
O5 O2- 4 a 0 0.1 0.14 3.52 1. 0
O6 O2- 4 a 0 0.14 0.4 4.03 1. 0
O7 O2- 4 a 0 0.39 0.43 3.26 1. 0
O8 O2- 8 b 0.25 0.27 0.36 3.51 1. 0
O9 O2- 8 b 0.25 0.04 0.5 2.48 1. 0
#End of TTdata_23423-ICSD