
#(C) 2017 by FIZ Karlsruhe - Leibniz Institute for Information Infrastructure.  All rights reserved.
data_23488-ICSD
_database_code_ICSD 23488
_audit_creation_date 1980-01-01
_audit_update_record 2015-02-01
_chemical_name_systematic 'Tripotassium calcium hydrogenbis(phosphate)'
_chemical_formula_structural 'K3 Ca H (P O4)2'
_chemical_formula_sum 'H1 Ca1 K3 O8 P2'
_chemical_name_structure_type HK3Ca(PO4)2
_exptl_crystal_density_diffrn 2.76
_publ_section_title 'Structure cristalline de Ca K3 H (P O4)2'
loop_
_citation_id
_citation_journal_full
_citation_year
_citation_journal_volume
_citation_page_first
_citation_page_last
_citation_journal_id_ASTM
primary

;
Bulletin de la Societe Francaise de Mineralogie et de Cristallographie
(72,1949-100,1977)
; 1969 92 30 32 BUFCAE
loop_
_publ_author_name
'Grenier, J.C.'
'Durif, A.'
'Martin, C.'
_cell_length_a 9.880(5)
_cell_length_b 5.733(2)
_cell_length_c 7.432(4)
_cell_angle_alpha 90.
_cell_angle_beta 94.10(5)
_cell_angle_gamma 90.
_cell_volume 419.89
_cell_formula_units_Z 2
_symmetry_space_group_name_H-M 'C 1 2/m 1'
_symmetry_Int_Tables_number 12
_refine_ls_R_factor_all 0.09
loop_
_symmetry_equiv_pos_site_id
_symmetry_equiv_pos_as_xyz
1 '-x, y, -z'
2 '-x, -y, -z'
3 'x, -y, z'
4 'x, y, z'
5 '-x+1/2, y+1/2, -z'
6 '-x+1/2, -y+1/2, -z'
7 'x+1/2, -y+1/2, z'
8 'x+1/2, y+1/2, z'
loop_
_atom_type_symbol
_atom_type_oxidation_number
K1+ 1
Ca2+ 2
P5+ 5
O2- -2
H1+ 1
loop_
_atom_site_label
_atom_site_type_symbol
_atom_site_symmetry_multiplicity
_atom_site_Wyckoff_symbol
_atom_site_fract_x
_atom_site_fract_y
_atom_site_fract_z
_atom_site_B_iso_or_equiv
_atom_site_occupancy
_atom_site_attached_hydrogens
K1 K1+ 2 a 0 0 0 1.8 1. 0
K2 K1+ 4 i 0.334 0 0.312 2. 1. 0
Ca1 Ca2+ 2 c 0 0 0.5 2.2 1. 0
P1 P5+ 4 i 0.333 0 0.739 0.9 1. 0
O1 O2- 4 i 0.367 0 0.941 0.5 1. 0
O2 O2- 4 i 0.177 0 0.721 1.6 1. 0
O3 O2- 8 j 0.417 0.213 0.683 3. 1. 0
#End of TTdata_23488-ICSD