
#(C) 2017 by FIZ Karlsruhe - Leibniz Institute for Information Infrastructure.  All rights reserved.
data_23560-ICSD
_database_code_ICSD 23560
_audit_creation_date 1980-01-01
_audit_update_record 2007-04-01
_chemical_name_systematic 'Chromium phosphide (3/1)'
_chemical_formula_structural 'Cr3 P'
_chemical_formula_sum 'Cr3 P1'
_chemical_name_structure_type Ni3P
_exptl_crystal_density_diffrn 6.45
_publ_section_title

;
Crystallographic Studies of Cr3 P and of the Solid Solution of Hydrogen in Zr3
P
;
loop_
_citation_id
_citation_journal_full
_citation_year
_citation_journal_volume
_citation_page_first
_citation_page_last
_citation_journal_id_ASTM
primary 'Physica Scripta' 1972 6 67 70 PHSTBO
loop_
_publ_author_name
'Owusu, M.'
'Jawad, H.'
'Lundstroem, T.'
'Rundqvist, S.'
_cell_length_a 9.1887(1)
_cell_length_b 9.1887(1)
_cell_length_c 4.5593(1)
_cell_angle_alpha 90.
_cell_angle_beta 90.
_cell_angle_gamma 90.
_cell_volume 384.95
_cell_formula_units_Z 8
_symmetry_space_group_name_H-M 'I -4'
_symmetry_Int_Tables_number 82
_refine_ls_R_factor_all 0.112
loop_
_symmetry_equiv_pos_site_id
_symmetry_equiv_pos_as_xyz
1 '-y, x, -z'
2 'y, -x, -z'
3 '-x, -y, z'
4 'x, y, z'
5 '-y+1/2, x+1/2, -z+1/2'
6 'y+1/2, -x+1/2, -z+1/2'
7 '-x+1/2, -y+1/2, z+1/2'
8 'x+1/2, y+1/2, z+1/2'
loop_
_atom_type_symbol
_atom_type_oxidation_number
Cr0+ 0
P0+ 0
loop_
_atom_site_label
_atom_site_type_symbol
_atom_site_symmetry_multiplicity
_atom_site_Wyckoff_symbol
_atom_site_fract_x
_atom_site_fract_y
_atom_site_fract_z
_atom_site_B_iso_or_equiv
_atom_site_occupancy
_atom_site_attached_hydrogens
Cr1 Cr0+ 8 g 0.0772(3) 0.1036(3) 0.2321(12) 0.11 1. 0
Cr2 Cr0+ 8 g 0.3589(3) 0.0309(3) 0.9960(13) 0.13 1. 0
Cr3 Cr0+ 8 g 0.1688(3) 0.2209(3) 0.7607(12) 0.03 1. 0
P1 P0+ 8 g 0.2908(5) 0.0455(5) 0.4845(26) 0 1. 0
#End of TTdata_23560-ICSD