
#(C) 2017 by FIZ Karlsruhe - Leibniz Institute for Information Infrastructure.  All rights reserved.
data_236253-ICSD
_database_code_ICSD 236253
_audit_creation_date 2013-08-01
_chemical_name_systematic 'Tin tetrabismuth heptatelluride'
_chemical_formula_structural 'Sn Bi4 Te7'
_chemical_formula_sum 'Bi4 Sn1 Te7'
_chemical_name_structure_type AgBiSe2
_exptl_crystal_density_diffrn 7.59
_publ_section_title

;
Thermoelectric properties of stoichiometric compounds in the (Sn Te)(x) (Bi2
Te3)(y) system
;
loop_
_citation_id
_citation_journal_full
_citation_year
_citation_journal_volume
_citation_page_first
_citation_page_last
_citation_journal_id_ASTM
primary 'Zeitschrift fuer Anorganische und Allgemeine Chemie (1950) (DE)' 2012
638 2640 2647 ZAACAB
loop_
_publ_author_name
'Kuropatwa, Bryan A.'
'Kleinke, Holger'
_cell_length_a 4.4037(1)
_cell_length_b 4.4037(1)
_cell_length_c 24.0671(4)
_cell_angle_alpha 90.
_cell_angle_beta 90.
_cell_angle_gamma 120.
_cell_volume 404.19
_cell_formula_units_Z 1
_symmetry_space_group_name_H-M 'P -3 m 1'
_symmetry_Int_Tables_number 164
_refine_ls_R_factor_all 0.0357
loop_
_symmetry_equiv_pos_site_id
_symmetry_equiv_pos_as_xyz
1 'x-y, -y, -z'
2 '-x, -x+y, -z'
3 'y, x, -z'
4 'x-y, x, -z'
5 'y, -x+y, -z'
6 '-x, -y, -z'
7 '-x+y, y, z'
8 'x, x-y, z'
9 '-y, -x, z'
10 '-x+y, -x, z'
11 '-y, x-y, z'
12 'x, y, z'
loop_
_atom_type_symbol
_atom_type_oxidation_number
Sn2+ 2
Bi3+ 3
Te2- -2
loop_
_atom_site_label
_atom_site_type_symbol
_atom_site_symmetry_multiplicity
_atom_site_Wyckoff_symbol
_atom_site_fract_x
_atom_site_fract_y
_atom_site_fract_z
_atom_site_B_iso_or_equiv
_atom_site_occupancy
_atom_site_attached_hydrogens
Sn1 Sn2+ 1 a 0 0 0 . 1. 0
Bi1 Bi3+ 2 d 0.3333 0.6667 0.8329(6) . 1. 0
Bi2 Bi3+ 2 d 0.3333 0.6667 0.5873(7) . 1. 0
Te1 Te2- 1 b 0 0 0.5 . 1. 0
Te2 Te2- 2 d 0.3333 0.6667 0.0725(7) . 1. 0
Te3 Te2- 2 c 0 0 0.2435(5) . 1. 0
Te4 Te2- 2 d 0.3333 0.6667 0.334(1) . 1. 0
#End of TTdata_236253-ICSD