
#(C) 2017 by FIZ Karlsruhe - Leibniz Institute for Information Infrastructure.  All rights reserved.
data_23631-ICSD
_database_code_ICSD 23631
_audit_creation_date 1980-01-01
_audit_update_record 2007-08-01
_chemical_name_systematic 'Bismuth sulfide iodide'
_chemical_formula_structural 'Bi S I'
_chemical_formula_sum 'Bi1 I1 S1'
_chemical_name_structure_type PbCl2
_exptl_crystal_density_diffrn 6.76
_publ_section_title 'Die Kristallstruktur des Wismutsulfidiodids (Bi S I)'
loop_
_citation_id
_citation_journal_full
_citation_year
_citation_journal_volume
_citation_page_first
_citation_page_last
_citation_journal_id_ASTM
primary Naturwissenschaften 1973 60 474 474 NATWAY
loop_
_publ_author_name
'Haase-Wessel, W.'
_cell_length_a 8.519(5)
_cell_length_b 10.177(8)
_cell_length_c 4.172(6)
_cell_angle_alpha 90.
_cell_angle_beta 90.
_cell_angle_gamma 90.
_cell_volume 361.7
_cell_formula_units_Z 4
_symmetry_space_group_name_H-M 'P n a m'
_symmetry_Int_Tables_number 62
_refine_ls_R_factor_all 0.088
loop_
_symmetry_equiv_pos_site_id
_symmetry_equiv_pos_as_xyz
1 'x+1/2, -y+1/2, z'
2 'x, y, -z+1/2'
3 '-x+1/2, y+1/2, z+1/2'
4 '-x, -y, -z'
5 '-x+1/2, y+1/2, -z'
6 '-x, -y, z+1/2'
7 'x+1/2, -y+1/2, -z+1/2'
8 'x, y, z'
loop_
_atom_type_symbol
_atom_type_oxidation_number
Bi3+ 3
S2- -2
I1- -1
loop_
_atom_site_label
_atom_site_type_symbol
_atom_site_symmetry_multiplicity
_atom_site_Wyckoff_symbol
_atom_site_fract_x
_atom_site_fract_y
_atom_site_fract_z
_atom_site_B_iso_or_equiv
_atom_site_occupancy
_atom_site_attached_hydrogens
Bi1 Bi3+ 4 c 0.1318(2) 0.1230(2) 0.25 1.88 1. 0
S1 S2- 4 c 0.8403(8) 0.0500(8) 0.25 1.46 1. 0
I1 I1- 4 c 0.5077(3) 0.8307(3) 0.25 1.83 1. 0
#End of TTdata_23631-ICSD