
#(C) 2017 by FIZ Karlsruhe - Leibniz Institute for Information Infrastructure.  All rights reserved.
data_23655-ICSD
_database_code_ICSD 23655
_audit_creation_date 1980-01-01
_chemical_name_systematic 'Cobalt yttrium boride (3/1/2)'
_chemical_formula_structural 'Co3 Y B2'
_chemical_formula_sum 'B2 Co3 Y1'
_chemical_name_structure_type Co3GdB2
_exptl_crystal_density_diffrn 7.22
_publ_section_title
'The Preparation and Crystal Structure of Ternary Rare Earth Borides, R Co3 B2'
loop_
_citation_id
_citation_journal_full
_citation_year
_citation_journal_volume
_citation_page_first
_citation_page_last
_citation_journal_id_ASTM
primary 'Bulletin of the Chemical Society of Japan' 1973 46 770 774 BCSJA8
loop_
_publ_author_name
'Niihara, K.'
'Yajima, S.'
_cell_length_a 5.020(2)
_cell_length_b 5.020(2)
_cell_length_c 3.027(2)
_cell_angle_alpha 90.
_cell_angle_beta 90.
_cell_angle_gamma 120.
_cell_volume 66.06
_cell_formula_units_Z 1
_symmetry_space_group_name_H-M 'P 6/m m m'
_symmetry_Int_Tables_number 191
_refine_ls_R_factor_all 0.122
loop_
_symmetry_equiv_pos_site_id
_symmetry_equiv_pos_as_xyz
1 '-x, -x+y, -z'
2 'x-y, -y, -z'
3 'y, x, -z'
4 '-x+y, -x, -z'
5 '-y, x-y, -z'
6 'x, y, -z'
7 'x, x-y, -z'
8 '-x+y, y, -z'
9 '-y, -x, -z'
10 'x-y, x, -z'
11 'y, -x+y, -z'
12 '-x, -y, -z'
13 'x, x-y, z'
14 '-x+y, y, z'
15 '-y, -x, z'
16 'x-y, x, z'
17 'y, -x+y, z'
18 '-x, -y, z'
19 '-x, -x+y, z'
20 'x-y, -y, z'
21 'y, x, z'
22 '-x+y, -x, z'
23 '-y, x-y, z'
24 'x, y, z'
loop_
_atom_type_symbol
_atom_type_oxidation_number
Co0+ 0
Y0+ 0
B0+ 0
loop_
_atom_site_label
_atom_site_type_symbol
_atom_site_symmetry_multiplicity
_atom_site_Wyckoff_symbol
_atom_site_fract_x
_atom_site_fract_y
_atom_site_fract_z
_atom_site_B_iso_or_equiv
_atom_site_occupancy
_atom_site_attached_hydrogens
Co1 Co0+ 3 g 0.5 0 0.5 0.64 1. 0
Y1 Y0+ 1 a 0 0 0 0.64 1. 0
B1 B0+ 2 c 0.3333 0.6667 0 0.64 1. 0
#End of TTdata_23655-ICSD