
#(C) 2017 by FIZ Karlsruhe - Leibniz Institute for Information Infrastructure.  All rights reserved.
data_237248-ICSD
_database_code_ICSD 237248
_audit_creation_date 2015-02-01
_chemical_name_systematic 'Sodium silicide (1/6)'
_chemical_formula_structural 'Na Si6'
_chemical_formula_sum 'Na1 Si6'
_chemical_name_structure_type Eu4Ga8Ge16
_exptl_crystal_density_diffrn 2.39
_publ_section_title

;
Na-Si clathrates are high-pressure phases: A melt-based route to control
stoichiometry and properties
;
loop_
_citation_id
_citation_journal_full
_citation_year
_citation_journal_volume
_citation_page_first
_citation_page_last
_citation_journal_id_ASTM
primary 'Crystal Growth and Design' 2013 13 303 307 CGDEFU
loop_
_publ_author_name
'Kurakevych, Oleksandr O.'
'Strobel, Timothy A.'
'Kim, Duck Young'
'Muramatsu, Takaki'
'Struzhkin, Viktor V.'
_cell_length_a 4.106(3)
_cell_length_b 10.563(9)
_cell_length_c 12.243(9)
_cell_angle_alpha 90.
_cell_angle_beta 90.
_cell_angle_gamma 90.
_cell_volume 531.
_cell_formula_units_Z 4
_symmetry_space_group_name_H-M 'C m c m'
_symmetry_Int_Tables_number 63
_refine_ls_R_factor_all 0.05
loop_
_symmetry_equiv_pos_site_id
_symmetry_equiv_pos_as_xyz
1 '-x, y, -z+1/2'
2 '-x, -y, z+1/2'
3 '-x, y, z'
4 '-x, -y, -z'
5 'x, -y, z+1/2'
6 'x, y, -z+1/2'
7 'x, -y, -z'
8 'x, y, z'
9 '-x+1/2, y+1/2, -z+1/2'
10 '-x+1/2, -y+1/2, z+1/2'
11 '-x+1/2, y+1/2, z'
12 '-x+1/2, -y+1/2, -z'
13 'x+1/2, -y+1/2, z+1/2'
14 'x+1/2, y+1/2, -z+1/2'
15 'x+1/2, -y+1/2, -z'
16 'x+1/2, y+1/2, z'
loop_
_atom_type_symbol
_atom_type_oxidation_number
Na0+ 0
Si0+ 0
loop_
_atom_site_label
_atom_site_type_symbol
_atom_site_symmetry_multiplicity
_atom_site_Wyckoff_symbol
_atom_site_fract_x
_atom_site_fract_y
_atom_site_fract_z
_atom_site_B_iso_or_equiv
_atom_site_occupancy
_atom_site_attached_hydrogens
Na1 Na0+ 4 c 0 0.285(5) 0.25 0.061(20) 1. 0
Si1 Si0+ 8 f 0 0.245(3) 0.549(1) 0.017(6) 1. 0
Si2 Si0+ 8 f 0 0.566(2) 0.347(1) 0.017(6) 1. 0
Si3 Si0+ 8 f 0 0.027(2) 0.594(1) 0.017(6) 1. 0
#End of TTdata_237248-ICSD