
#(C) 2017 by FIZ Karlsruhe - Leibniz Institute for Information Infrastructure.  All rights reserved.
data_237483-ICSD
_database_code_ICSD 237483
_audit_creation_date 2015-02-01
_chemical_name_systematic 'Indium vanadate - V'
_chemical_formula_structural 'In V O4'
_chemical_formula_sum 'In1 O4 V1'
_chemical_name_structure_type YTaO4
_exptl_crystal_density_diffrn 6.06
_cell_measurement_temperature 300.
_publ_section_title

;
New polymorph of In V O4: A high-pressure structure with six-coordinated
vanadium
;
loop_
_citation_id
_citation_journal_full
_citation_year
_citation_journal_volume
_citation_page_first
_citation_page_last
_citation_journal_id_ASTM
primary 'Inorganic Chemistry' 2013 52 12790 12798 INOCAJ
loop_
_publ_author_name
'Errandonea, Daniel'
'Gomis, Oscar'
'Garcia-Domene, Braulio'
'Pellicer-Porres, Julio'
'Katari, Vasundhara'
'Achary, S.Nagabhusan'
'Tyagi, Avesh K.'
'Popescu, Catalin'
_cell_length_a 4.714(5)
_cell_length_b 5.459(6)
_cell_length_c 4.903(5)
_cell_angle_alpha 90.
_cell_angle_beta 93.8(3)
_cell_angle_gamma 90.
_cell_volume 125.89
_cell_formula_units_Z 2
_symmetry_space_group_name_H-M 'P 1 2/c 1'
_symmetry_Int_Tables_number 13
_refine_ls_R_factor_all 0.0632
loop_
_symmetry_equiv_pos_site_id
_symmetry_equiv_pos_as_xyz
1 'x, -y, z+1/2'
2 '-x, -y, -z'
3 '-x, y, -z+1/2'
4 'x, y, z'
loop_
_atom_type_symbol
_atom_type_oxidation_number
In3+ 3
V5+ 5
O2- -2
loop_
_atom_site_label
_atom_site_type_symbol
_atom_site_symmetry_multiplicity
_atom_site_Wyckoff_symbol
_atom_site_fract_x
_atom_site_fract_y
_atom_site_fract_z
_atom_site_B_iso_or_equiv
_atom_site_occupancy
_atom_site_attached_hydrogens
In1 In3+ 2 f 0.5 0.711(1) 0.25 0.08 1. 0
V1 V5+ 2 e 0. 0.159(1) 0.25 0.08 1. 0
O1 O2- 4 g 0.214(2) 0.861(4) 0.492(2) 0.08 1. 0
O2 O2- 4 g 0.242(2) 0.407(3) 0.399(3) 0.08 1. 0
#End of TTdata_237483-ICSD