
#(C) 2017 by FIZ Karlsruhe - Leibniz Institute for Information Infrastructure.  All rights reserved.
data_237677-ICSD
_database_code_ICSD 237677
_audit_creation_date 2015-02-01
_chemical_name_systematic 'Barium germanium rhodium (6/32/8)'
_chemical_formula_structural 'Ba6 Ge32 Rh8'
_chemical_formula_sum 'Ba6 Ge32 Rh8'
_exptl_crystal_density_diffrn 6.92
_cell_measurement_temperature 293.
_publ_section_title

;
Cage-forming compounds in the Ba-Rh-Ge system: From thermoelectrics to
superconductivity
;
loop_
_citation_id
_citation_journal_full
_citation_year
_citation_journal_volume
_citation_page_first
_citation_page_last
_citation_journal_id_ASTM
primary 'Inorganic Chemistry' 2013 52 931 943 INOCAJ
loop_
_publ_author_name
'Falmbigl, M.'
'Kneidinger, F.'
'Chen, M.'
'Grytsiv, A.'
'Michor, H.'
'Royanian, E.'
'Bauer, E.'
'Effenberger, H.'
'Podloucky, R.'
'Rogl, P.'
_cell_length_a 6.5643(2)
_cell_length_b 6.5643(2)
_cell_length_c 22.0367(8)
_cell_angle_alpha 90.
_cell_angle_beta 90.
_cell_angle_gamma 90.
_cell_volume 949.56
_cell_formula_units_Z 1
_symmetry_space_group_name_H-M 'I 4/m m m'
_symmetry_Int_Tables_number 139
_refine_ls_R_factor_all 0.0301
loop_
_symmetry_equiv_pos_site_id
_symmetry_equiv_pos_as_xyz
1 'y, x, -z'
2 '-y, -x, -z'
3 '-y, x, -z'
4 'y, -x, -z'
5 '-x, y, -z'
6 'x, -y, -z'
7 'x, y, -z'
8 '-x, -y, -z'
9 '-y, -x, z'
10 'y, x, z'
11 'y, -x, z'
12 '-y, x, z'
13 'x, -y, z'
14 '-x, y, z'
15 '-x, -y, z'
16 'x, y, z'
17 'y+1/2, x+1/2, -z+1/2'
18 '-y+1/2, -x+1/2, -z+1/2'
19 '-y+1/2, x+1/2, -z+1/2'
20 'y+1/2, -x+1/2, -z+1/2'
21 '-x+1/2, y+1/2, -z+1/2'
22 'x+1/2, -y+1/2, -z+1/2'
23 'x+1/2, y+1/2, -z+1/2'
24 '-x+1/2, -y+1/2, -z+1/2'
25 '-y+1/2, -x+1/2, z+1/2'
26 'y+1/2, x+1/2, z+1/2'
27 'y+1/2, -x+1/2, z+1/2'
28 '-y+1/2, x+1/2, z+1/2'
29 'x+1/2, -y+1/2, z+1/2'
30 '-x+1/2, y+1/2, z+1/2'
31 '-x+1/2, -y+1/2, z+1/2'
32 'x+1/2, y+1/2, z+1/2'
loop_
_atom_type_symbol
_atom_type_oxidation_number
Ge0+ 0
Rh0+ 0
Ge0+ 0
Ba0+ 0
loop_
_atom_site_label
_atom_site_type_symbol
_atom_site_symmetry_multiplicity
_atom_site_Wyckoff_symbol
_atom_site_fract_x
_atom_site_fract_y
_atom_site_fract_z
_atom_site_B_iso_or_equiv
_atom_site_occupancy
_atom_site_attached_hydrogens
Ge1 Ge0+ 16 m 0.24346(12) 0.24346(12) 0.12892(6) 0.0138(3) 1 0
Ge2 Ge0+ 8 j 0.2285(2) 0.5 0. 0.0120(4) 1 0
Rh1 Rh0+ 8 g 0. 0.5 0.08876(5) 0.0091(3) 1 0
Ge3 Ge0+ 4 e 0. 0. 0.19696(11) 0.0151(5) 1 0
Ge4 Ge0+ 4 e 0. 0. 0.31061(11) 0.0166(5) 1 0
Ba1 Ba0+ 4 d 0. 0.5 0.25 0.0115(3) 1 0
Ba2 Ba0+ 2 a 0. 0. 0. 0.0133(4) 1 0
loop_
_atom_site_aniso_label
_atom_site_aniso_type_symbol
_atom_site_aniso_U_11
_atom_site_aniso_U_22
_atom_site_aniso_U_33
_atom_site_aniso_U_12
_atom_site_aniso_U_13
_atom_site_aniso_U_23
Ge1 Ge0+ 0.0136(4) 0.0136(4) 0.0140(5) 0.0046(3) -0.0009(3) -0.0009(3)
Ge2 Ge0+ 0.0108(7) 0.0123(7) 0.0127(7) 0. 0. 0.
Rh1 Rh0+ 0.0081(5) 0.0082(5) 0.0111(5) 0. 0. 0.
Ge3 Ge0+ 0.0157(7) 0.0157(7) 0.0139(10) 0. 0. 0.
Ge4 Ge0+ 0.0173(7) 0.0173(7) 0.0151(11) 0. 0. 0.
Ba1 Ba0+ 0.0118(4) 0.0118(4) 0.0108(6) 0. 0. 0.
Ba2 Ba0+ 0.0127(5) 0.0127(5) 0.0143(8) 0. 0. 0.
#End of TTdata_237677-ICSD