
#(C) 2017 by FIZ Karlsruhe - Leibniz Institute for Information Infrastructure.  All rights reserved.
data_23786-ICSD
_database_code_ICSD 23786
_audit_creation_date 1980-01-01
_chemical_name_systematic 'Molybdenum iridium boride (2/1/2)'
_chemical_formula_structural 'Mo2 Ir B2'
_chemical_formula_sum 'B2 Ir1 Mo2'
_chemical_name_structure_type Y3Co2
_exptl_crystal_density_diffrn 12.06
_publ_section_title 'Ueber einige Komplexboride mit Platinmetallen'
loop_
_citation_id
_citation_journal_full
_citation_year
_citation_journal_volume
_citation_page_first
_citation_page_last
_citation_journal_id_ASTM
primary 'Monatshefte fuer Chemie' 1972 103 965 989 MOCHAP
loop_
_publ_author_name
'Rogl, P.'
'Benesovsky, F.'
'Nowotny, H.N.'
_cell_length_a 9.422
_cell_length_b 7.356
_cell_length_c 3.231
_cell_angle_alpha 90.
_cell_angle_beta 90.
_cell_angle_gamma 90.
_cell_volume 223.93
_cell_formula_units_Z 4
_symmetry_space_group_name_H-M 'P n n m'
_symmetry_Int_Tables_number 58
_refine_ls_R_factor_all 0.099
loop_
_symmetry_equiv_pos_site_id
_symmetry_equiv_pos_as_xyz
1 'x+1/2, -y+1/2, z+1/2'
2 '-x+1/2, y+1/2, z+1/2'
3 'x, y, -z'
4 '-x, -y, -z'
5 '-x+1/2, y+1/2, -z+1/2'
6 'x+1/2, -y+1/2, -z+1/2'
7 '-x, -y, z'
8 'x, y, z'
loop_
_atom_type_symbol
_atom_type_oxidation_number
Mo0+ 0
Ir0+ 0
B0+ 0
loop_
_atom_site_label
_atom_site_type_symbol
_atom_site_symmetry_multiplicity
_atom_site_Wyckoff_symbol
_atom_site_fract_x
_atom_site_fract_y
_atom_site_fract_z
_atom_site_B_iso_or_equiv
_atom_site_occupancy
_atom_site_attached_hydrogens
Mo1 Mo0+ 4 g 0.3676(5) 0.3121(6) 0 0.6 1. 0
Mo2 Mo0+ 4 g 0.6397(6) 0.0703(5) 0 0.4 1. 0
Ir1 Ir0+ 4 g 0.1087(3) 0.1220(4) 0 0.7 1. 0
B1 B0+ 4 g 0.0353(80) 0.6161(70) 0 0.3 1. 0
B2 B0+ 4 g 0.2282(80) 0.622(9) 0 0.3 1. 0
#End of TTdata_23786-ICSD