
#(C) 2017 by FIZ Karlsruhe - Leibniz Institute for Information Infrastructure.  All rights reserved.
data_238202-ICSD
_database_code_ICSD 238202
_audit_creation_date 2015-08-01
_chemical_name_systematic 'Disodium magnesium plumbide'
_chemical_formula_structural 'Na2 Mg Pb'
_chemical_formula_sum 'Mg1 Na2 Pb1'
_chemical_name_structure_type Na3As
_exptl_crystal_density_diffrn 4.01
_cell_measurement_temperature 293.
_publ_section_title

;
Synthesis, crystal structure, and high-temperature phase transition of the
novel plumbide Na2 Mg Pb
;
loop_
_citation_id
_citation_journal_full
_citation_year
_citation_journal_volume
_citation_page_first
_citation_page_last
_citation_journal_id_ASTM
primary 'Inorganic Chemistry' 2014 53 5253 5259 INOCAJ
loop_
_publ_author_name
'Yamada, Takahiro'
'Ikeda, Takuji'
'Stoffel, Ralf P.'
'Deringer, Volker L.'
'Dronskowski, Richard'
'Yamane, Hisanori'
_cell_length_a 5.110(2)
_cell_length_b 5.110(2)
_cell_length_c 10.171(4)
_cell_angle_alpha 90.
_cell_angle_beta 90.
_cell_angle_gamma 120.
_cell_volume 230.
_cell_formula_units_Z 2
_symmetry_space_group_name_H-M 'P 63/m m c'
_symmetry_Int_Tables_number 194
_refine_ls_R_factor_all 0.0461
loop_
_symmetry_equiv_pos_site_id
_symmetry_equiv_pos_as_xyz
1 'x, x-y, -z+1/2'
2 '-x+y, y, -z+1/2'
3 '-y, -x, -z+1/2'
4 '-x+y, -x, -z+1/2'
5 '-y, x-y, -z+1/2'
6 'x, y, -z+1/2'
7 '-x, -x+y, z+1/2'
8 'x-y, -y, z+1/2'
9 'y, x, z+1/2'
10 'x-y, x, z+1/2'
11 'y, -x+y, z+1/2'
12 '-x, -y, z+1/2'
13 '-x, -x+y, -z'
14 'x-y, -y, -z'
15 'y, x, -z'
16 'x-y, x, -z'
17 'y, -x+y, -z'
18 '-x, -y, -z'
19 'x, x-y, z'
20 '-x+y, y, z'
21 '-y, -x, z'
22 '-x+y, -x, z'
23 '-y, x-y, z'
24 'x, y, z'
loop_
_atom_type_symbol
_atom_type_oxidation_number
Na0+ 0
Mg0+ 0
Pb0+ 0
loop_
_atom_site_label
_atom_site_type_symbol
_atom_site_symmetry_multiplicity
_atom_site_Wyckoff_symbol
_atom_site_fract_x
_atom_site_fract_y
_atom_site_fract_z
_atom_site_B_iso_or_equiv
_atom_site_occupancy
_atom_site_attached_hydrogens
Na1 Na0+ 4 f 0.3333 0.6667 0.5808(14) 0.048(3) 1 0
Mg1 Mg0+ 2 b 0. 0. 0.25 0.033(3) 1 0
Pb1 Pb0+ 2 c 0.3333 0.6667 0.25 0.0334(5) 1 0
loop_
_atom_site_aniso_label
_atom_site_aniso_type_symbol
_atom_site_aniso_U_11
_atom_site_aniso_U_22
_atom_site_aniso_U_33
_atom_site_aniso_U_12
_atom_site_aniso_U_13
_atom_site_aniso_U_23
Na1 Na0+ 0.041(4) 0.041(4) 0.061(10) 0.0207(18) 0. 0.
Mg1 Mg0+ 0.017(3) 0.017(3) 0.067(9) 0.0083(13) 0. 0.
Pb1 Pb0+ 0.0287(5) 0.0287(5) 0.0426(9) 0.0144(3) 0. 0.
#End of TTdata_238202-ICSD