
#(C) 2017 by FIZ Karlsruhe - Leibniz Institute for Information Infrastructure.  All rights reserved.
data_238797-ICSD
_database_code_ICSD 238797
_audit_creation_date 2016-02-01
_chemical_name_systematic 'Dicalcium dichromate'
_chemical_formula_structural 'Ca2 Cr2 O5'
_chemical_formula_sum 'Ca2 Cr2 O5'
_chemical_name_structure_type Ca2AlFeO5(oI)
_chemical_name_mineral Brownmillerite
_exptl_crystal_density_diffrn 3.98
_publ_section_title
'Crystal and magnetic structures of the brownmillerite Ca2 Cr2 O5'
loop_
_citation_id
_citation_journal_full
_citation_year
_citation_journal_volume
_citation_page_first
_citation_page_last
_citation_journal_id_ASTM
primary 'Dalton Transactions' 2015 44 10661 10664 DTARAF
loop_
_publ_author_name
'Arevalo-Lopez, Angel M.'
'Attfield, J. Paul'
_cell_length_a 5.420(4)
_cell_length_b 14.770(10)
_cell_length_c 5.509(4)
_cell_angle_alpha 90.
_cell_angle_beta 90.
_cell_angle_gamma 90.
_cell_volume 441.01
_cell_formula_units_Z 4
_symmetry_space_group_name_H-M 'I 2 m b'
_symmetry_Int_Tables_number 46
_refine_ls_R_factor_all 0.052
loop_
_symmetry_equiv_pos_site_id
_symmetry_equiv_pos_as_xyz
1 'x, y+1/2, -z'
2 'x, -y+1/2, z'
3 'x, -y, -z'
4 'x, y, z'
5 'x+1/2, y, -z+1/2'
6 'x+1/2, -y, z+1/2'
7 'x+1/2, -y+1/2, -z+1/2'
8 'x+1/2, y+1/2, z+1/2'
loop_
_atom_type_symbol
_atom_type_oxidation_number
Ca2+ 2
Cr3+ 3
O2- -2
loop_
_atom_site_label
_atom_site_type_symbol
_atom_site_symmetry_multiplicity
_atom_site_Wyckoff_symbol
_atom_site_fract_x
_atom_site_fract_y
_atom_site_fract_z
_atom_site_B_iso_or_equiv
_atom_site_occupancy
_atom_site_attached_hydrogens
Ca1 Ca2+ 8 c 0.497(3) 0.1074(4) 0.012(2) . 1. 0
Cr1 Cr3+ 4 a 0.501(4) 0.5 0.5 . 1. 0
Cr2 Cr3+ 4 b -0.007(4) 0.25 0.936(2) . 1. 0
O1 O2- 8 c 0.754(2) 0.4919(5) 0.746(2) . 1. 0
O2 O2- 8 c 0.022(2) 0.1398(3) 0.036(1) . 1. 0
O3 O2- 4 b 0.162(2) 0.75 0.366(2) . 1. 0
#End of TTdata_238797-ICSD