
#(C) 2017 by FIZ Karlsruhe - Leibniz Institute for Information Infrastructure.  All rights reserved.
data_23916-ICSD
_database_code_ICSD 23916
_audit_creation_date 1986-10-20
_audit_update_record 2009-08-01
_chemical_name_systematic 'Niobium(IV) iodide - alpha'
_chemical_formula_structural 'Nb I4'
_chemical_formula_sum 'I4 Nb1'
_exptl_crystal_density_diffrn 5.64
_publ_section_title 'The crystal structure of alpha-niobium tetraiodide'
loop_
_citation_id
_citation_journal_full
_citation_year
_citation_journal_volume
_citation_page_first
_citation_page_last
_citation_journal_id_ASTM
primary 'Acta Crystallographica (1,1948-23,1967)' 1962 15 903 911 ACCRA9
loop_
_publ_author_name
'Dahl, L.F.'
'Wampler, D.L.'
_cell_length_a 7.67(2)
_cell_length_b 13.23(2)
_cell_length_c 13.93(2)
_cell_angle_alpha 90.
_cell_angle_beta 90.
_cell_angle_gamma 90.
_cell_volume 1413.53
_cell_formula_units_Z 8
_symmetry_space_group_name_H-M 'C m c 21'
_symmetry_Int_Tables_number 36
_refine_ls_R_factor_all 0.086
loop_
_symmetry_equiv_pos_site_id
_symmetry_equiv_pos_as_xyz
1 'x, -y, z+1/2'
2 '-x, -y, z+1/2'
3 '-x, y, z'
4 'x, y, z'
5 'x+1/2, -y+1/2, z+1/2'
6 '-x+1/2, -y+1/2, z+1/2'
7 '-x+1/2, y+1/2, z'
8 'x+1/2, y+1/2, z'
loop_
_atom_type_symbol
_atom_type_oxidation_number
Nb4+ 4
I1- -1
loop_
_atom_site_label
_atom_site_type_symbol
_atom_site_symmetry_multiplicity
_atom_site_Wyckoff_symbol
_atom_site_fract_x
_atom_site_fract_y
_atom_site_fract_z
_atom_site_B_iso_or_equiv
_atom_site_occupancy
_atom_site_attached_hydrogens
Nb1 Nb4+ 8 b 0.2157(5) 0.1252(3) 0.1202(6) . 1. 0
I1 I1- 8 b 0.2460(4) 0.0065(2) -.0323 . 1. 0
I2 I1- 8 b 0.2451(4) 0.2340(3) 0.2834(2) . 1. 0
I3 I1- 4 a 0 0.2619(5) 0.0342(5) . 1. 0
I4 I1- 4 a 0 -.0114(4) 0.2102(5) . 1. 0
I5 I1- 4 a 0.5 0.2443(5) 0.0444(5) . 1. 0
I6 I1- 4 a 0.5 0.0077(5) 0.1999(5) . 1. 0
loop_
_atom_site_aniso_label
_atom_site_aniso_type_symbol
_atom_site_aniso_beta_11
_atom_site_aniso_beta_22
_atom_site_aniso_beta_33
_atom_site_aniso_beta_12
_atom_site_aniso_beta_13
_atom_site_aniso_beta_23
Nb1 Nb4+ 0.0025(10) 0.0020(1) 0.0012(1) -.0001(3) -.0001(4) -.0001(1)
I1 I1- 0.0097(10) 0.0014(1) 0.0025(2) -.0001(2) 0.0003(2) -.0010(1)
I2 I1- 0.0080(7) 0.0025(2) 0.0012(1) -.0008(2) 0.0002(2) -.0003(1)
I3 I1- 0.0046(8) 0.0017(2) 0.0026(3) 0 0 -.0002(2)
I4 I1- 0.0065(9) 0.0017(2) 0.0027(3) 0 0 0.0011(2)
I5 I1- 0.0054(8) 0.0020(2) 0.0012(2) 0 0 0.0003(2)
I6 I1- 0.0059(9) 0.0018(2) 0.0033(3) 0 0 -.0003(2)
#End of TTdata_23916-ICSD