
#(C) 2017 by FIZ Karlsruhe - Leibniz Institute for Information Infrastructure.  All rights reserved.
data_239218-ICSD
_database_code_ICSD 239218
_audit_creation_date 2016-08-01
_chemical_name_systematic 'Silicon dioxide'
_chemical_formula_structural 'Si O2'
_chemical_formula_sum 'O2 Si1'
_chemical_name_structure_type PbO2-alpha
_chemical_name_mineral Seifertite
_exptl_crystal_density_diffrn 5.52
_cell_measurement_pressure 129000000.
_publ_section_title

;
In-situ crystal structure determination of seifertite SiO2 at 129 GPa:
Studying a minor phase near Earth's core-mantle boundary
;
loop_
_citation_id
_citation_journal_full
_citation_year
_citation_journal_volume
_citation_page_first
_citation_page_last
_citation_journal_id_ASTM
primary 'American Mineralogist' 2016 101 231 234 AMMIAY
loop_
_publ_author_name
'Zhang, Li'
'Popov, Dmitry'
'Meng, Yue'
'Wang, Junyue'
'Ji, Cheng'
'Li, Bing'
'Mao, Ho-Kwang'
_cell_length_a 3.7277(2)
_cell_length_b 4.6576(2)
_cell_length_c 4.1609(3)
_cell_angle_alpha 90.
_cell_angle_beta 90.
_cell_angle_gamma 90.
_cell_volume 72.24
_cell_formula_units_Z 4
_symmetry_space_group_name_H-M 'P b c n'
_symmetry_Int_Tables_number 60
_refine_ls_R_factor_all 0.056
loop_
_symmetry_equiv_pos_site_id
_symmetry_equiv_pos_as_xyz
1 'x, -y, z+1/2'
2 '-x+1/2, y+1/2, z'
3 'x+1/2, y+1/2, -z+1/2'
4 '-x, -y, -z'
5 '-x, y, -z+1/2'
6 'x+1/2, -y+1/2, -z'
7 '-x+1/2, -y+1/2, z+1/2'
8 'x, y, z'
loop_
_atom_type_symbol
_atom_type_oxidation_number
Si4+ 4
O2- -2
loop_
_atom_site_label
_atom_site_type_symbol
_atom_site_symmetry_multiplicity
_atom_site_Wyckoff_symbol
_atom_site_fract_x
_atom_site_fract_y
_atom_site_fract_z
_atom_site_B_iso_or_equiv
_atom_site_occupancy
_atom_site_attached_hydrogens
Si1 Si4+ 4 c 0 0.1504(3) 0.25 0.0067(7) 1. 0
O1 O2- 8 d 0.7418(4) 0.6130(3) 0.919(1) 0.0069(8) 1. 0
#End of TTdata_239218-ICSD