
#(C) 2017 by FIZ Karlsruhe - Leibniz Institute for Information Infrastructure.  All rights reserved.
data_239415-ICSD
_database_code_ICSD 239415
_audit_creation_date 2016-08-01
_chemical_name_systematic 'Titanium bismuth oxide (8/1/7)'
_chemical_formula_structural 'Ti8 Bi O7'
_chemical_formula_sum 'Bi1 O7 Ti8'
_exptl_crystal_density_diffrn 5.85
_publ_section_title

;
Synthesis and crystal structure analysis of titanium bismuthide oxide, Ti8 Bi
O7
;
loop_
_citation_id
_citation_journal_full
_citation_year
_citation_journal_volume
_citation_page_first
_citation_page_last
_citation_journal_id_ASTM
primary 'Journal of Alloys and Compounds' 2016 675 377 380 JALCEU
loop_
_publ_author_name
'Amano, Shinsaku'
'Yamane, Hisanori'
_cell_length_a 7.8473(4)
_cell_length_b 16.8295(10)
_cell_length_c 3.0256(2)
_cell_angle_alpha 90.
_cell_angle_beta 90.
_cell_angle_gamma 90.
_cell_volume 399.58
_cell_formula_units_Z 2
_symmetry_space_group_name_H-M 'C m m m'
_symmetry_Int_Tables_number 65
_refine_ls_R_factor_all 0.0149
loop_
_symmetry_equiv_pos_site_id
_symmetry_equiv_pos_as_xyz
1 'x, -y, z'
2 '-x, y, z'
3 'x, y, -z'
4 '-x, -y, -z'
5 '-x, y, -z'
6 'x, -y, -z'
7 '-x, -y, z'
8 'x, y, z'
9 'x+1/2, -y+1/2, z'
10 '-x+1/2, y+1/2, z'
11 'x+1/2, y+1/2, -z'
12 '-x+1/2, -y+1/2, -z'
13 '-x+1/2, y+1/2, -z'
14 'x+1/2, -y+1/2, -z'
15 '-x+1/2, -y+1/2, z'
16 'x+1/2, y+1/2, z'
loop_
_atom_type_symbol
_atom_type_oxidation_number
Ti1+ 1.38
Bi3+ 3
O2- -2
loop_
_atom_site_label
_atom_site_type_symbol
_atom_site_symmetry_multiplicity
_atom_site_Wyckoff_symbol
_atom_site_fract_x
_atom_site_fract_y
_atom_site_fract_z
_atom_site_B_iso_or_equiv
_atom_site_occupancy
_atom_site_attached_hydrogens
Ti1 Ti1+ 8 q 0.31662(5) 0.17015(3) 0.5 0.00308(8) 1. 0
Ti2 Ti1+ 4 g 0.17496(8) 0 0 0.00598(11) 1. 0
Ti3 Ti1+ 4 i 0 0.20320(4) 0 0.00278(10) 1. 0
Bi1 Bi3+ 2 c 0.5 0 0.5 0.00526(6) 1. 0
O1 O2- 8 p 0.1785(2) 0.11935(10) 0 0.0035(3) 1. 0
O2 O2- 4 i 0 0.32215(4) 0 0.0030(4) 1. 0
O3 O2- 2 d 0 0 0.5 0.0037(6) 1. 0
loop_
_atom_site_aniso_label
_atom_site_aniso_type_symbol
_atom_site_aniso_U_11
_atom_site_aniso_U_22
_atom_site_aniso_U_33
_atom_site_aniso_U_12
_atom_site_aniso_U_13
_atom_site_aniso_U_23
Ti1 Ti1+ 0.00301(18) 0.00426(18) 0.00196(18) -0.00034(13) 0. 0.
Ti2 Ti1+ 0.0076(3) 0.0028(2) 0.0075(3) 0. 0. 0.
Ti3 Ti1+ 0.0028(2) 0.0025(2) 0.0030(2) 0. 0. 0.
Bi1 Bi3+ 0.00459(8) 0.00622(9) 0.00499(9) 0. 0. 0.
O1 O2- 0.0033(7) 0.0025(7) 0.0047(7) -0.0002(5) 0. 0.
O2 O2- 0.0032(10) 0.0024(10) 0.0035(10) 0. 0. 0.
O3 O2- 0.0034(14) 0.0032(14) 0.0046(15) 0. 0. 0.
#End of TTdata_239415-ICSD