
#(C) 2017 by FIZ Karlsruhe - Leibniz Institute for Information Infrastructure.  All rights reserved.
data_239562-ICSD
_database_code_ICSD 239562
_audit_creation_date 2016-08-01
_chemical_name_systematic 'Barium trigermanide - hP8'
_chemical_formula_structural 'Ba Ge3'
_chemical_formula_sum 'Ba1 Ge3'
_chemical_name_structure_type Ni3Sn
_exptl_crystal_density_diffrn 5.81
_cell_measurement_temperature 293.
_publ_section_title
'Germanium dumbbells in a new superconducting modification of Ba Ge3'
loop_
_citation_id
_citation_journal_full
_citation_year
_citation_journal_volume
_citation_page_first
_citation_page_last
_citation_journal_id_ASTM
primary 'Inorganic Chemistry' 2016 55 4498 4503 INOCAJ
loop_
_publ_author_name
'Castillo, Rodrigo'
'Baranov, Alexey I.'
'Burkhardt, Ulrich'
'Cardoso-Gil, Raul'
'Schnelle, Walter'
'Bobnar, Matej'
'Schwarz, Ulrich'
_cell_length_a 6.8288(3)
_cell_length_b 6.8288(3)
_cell_length_c 5.0303(3)
_cell_angle_alpha 90.
_cell_angle_beta 90.
_cell_angle_gamma 120.
_cell_volume 203.15
_cell_formula_units_Z 2
_symmetry_space_group_name_H-M 'P 63/m m c'
_symmetry_Int_Tables_number 194
_refine_ls_R_factor_all 0.1
loop_
_symmetry_equiv_pos_site_id
_symmetry_equiv_pos_as_xyz
1 'x, x-y, -z+1/2'
2 '-x+y, y, -z+1/2'
3 '-y, -x, -z+1/2'
4 '-x+y, -x, -z+1/2'
5 '-y, x-y, -z+1/2'
6 'x, y, -z+1/2'
7 '-x, -x+y, z+1/2'
8 'x-y, -y, z+1/2'
9 'y, x, z+1/2'
10 'x-y, x, z+1/2'
11 'y, -x+y, z+1/2'
12 '-x, -y, z+1/2'
13 '-x, -x+y, -z'
14 'x-y, -y, -z'
15 'y, x, -z'
16 'x-y, x, -z'
17 'y, -x+y, -z'
18 '-x, -y, -z'
19 'x, x-y, z'
20 '-x+y, y, z'
21 '-y, -x, z'
22 '-x+y, -x, z'
23 '-y, x-y, z'
24 'x, y, z'
loop_
_atom_type_symbol
_atom_type_oxidation_number
Ba2+ 2
Ge0+ -0.67
loop_
_atom_site_label
_atom_site_type_symbol
_atom_site_symmetry_multiplicity
_atom_site_Wyckoff_symbol
_atom_site_fract_x
_atom_site_fract_y
_atom_site_fract_z
_atom_site_B_iso_or_equiv
_atom_site_occupancy
_atom_site_attached_hydrogens
Ba1 Ba2+ 2 d 0.3333 0.6667 0.75 1.3(1) 1. 0
Ge1 Ge0+ 6 h 0.1278(3) 0.2556(3) 0.25 1.4(1) 1. 0
#End of TTdata_239562-ICSD