
#(C) 2017 by FIZ Karlsruhe - Leibniz Institute for Information Infrastructure.  All rights reserved.
data_239805-ICSD
_database_code_ICSD 239805
_audit_creation_date 2016-08-01
_chemical_name_systematic 'Pentavanadium octasulfide'
_chemical_formula_structural 'V5 S8'
_chemical_formula_sum 'S8 V5'
_exptl_crystal_density_diffrn 6.8
_cell_measurement_temperature 293.
_publ_section_title

;
High-pressure control of vanadium self-intercalation and enhanced metallic
properties in 1T-V1+xS2 single crystals
;
loop_
_citation_id
_citation_journal_full
_citation_year
_citation_journal_volume
_citation_page_first
_citation_page_last
_citation_journal_id_ASTM
primary 'Inorganic Chemistry' 2016 55 6481 6486 INOCAJ
loop_
_publ_author_name
'Moutaabbid, Hicham'
'Le Godec, Yann'
'Taverna, Dario'
'Baptiste, Benoit'
'Klein, Yannick'
'Loupias, Genevieve'
'Gauzzi, Andrea'
_cell_length_a 6.6488(2)
_cell_length_b 6.6488(2)
_cell_length_c 7.9146(7)
_cell_angle_alpha 90
_cell_angle_beta 134.461(16)
_cell_angle_gamma 90
_cell_volume 249.71
_cell_formula_units_Z 2
_symmetry_space_group_name_H-M 'C 1 2/m 1'
_symmetry_Int_Tables_number 12
_refine_ls_R_factor_all 0.031
loop_
_symmetry_equiv_pos_site_id
_symmetry_equiv_pos_as_xyz
1 '-x, y, -z'
2 '-x, -y, -z'
3 'x, -y, z'
4 'x, y, z'
5 '-x+1/2, y+1/2, -z'
6 '-x+1/2, -y+1/2, -z'
7 'x+1/2, -y+1/2, z'
8 'x+1/2, y+1/2, z'
loop_
_atom_type_symbol
_atom_type_oxidation_number
V3+ 3.2
S2- -2
V3+ 3.2
S2- -2
loop_
_atom_site_label
_atom_site_type_symbol
_atom_site_symmetry_multiplicity
_atom_site_Wyckoff_symbol
_atom_site_fract_x
_atom_site_fract_y
_atom_site_fract_z
_atom_site_B_iso_or_equiv
_atom_site_occupancy
_atom_site_attached_hydrogens
V1 V3+ 4 i 0.77098(10) 0. 1.01413(15) 0.0108(3) 1 0
V2 V3+ 4 g 0.5 0.28357(13) 1. 0.0082(3) 1 0
S1 S2- 4 i 0.47721(14) 0. 0.7801(2) 0.0073(3) 1 0
S2 S2- 4 i 1.05540(14) 0. 1.2775(2) 0.0075(3) 1 0
V3 V3+ 2 d 0.5 0. 0.5 0.0086(3) 1 0
S3 S2- 8 j 0.70991(10) -0.24880(12) 0.74674(16) 0.0075(3) 1 0
loop_
_atom_site_aniso_label
_atom_site_aniso_type_symbol
_atom_site_aniso_U_11
_atom_site_aniso_U_22
_atom_site_aniso_U_33
_atom_site_aniso_U_12
_atom_site_aniso_U_13
_atom_site_aniso_U_23
V1 V3+ 0.0090(5) 0.0148(5) 0.0070(5) 0. 0.0050(4) 0.
V2 V3+ 0.0081(4) 0.0087(5) 0.0071(5) 0. 0.0052(4) 0.
S1 S2- 0.0089(6) 0.0069(6) 0.0097(6) 0. 0.0078(5) 0.
S2 S2- 0.0070(6) 0.0084(6) 0.0068(6) 0. 0.0047(5) 0.
V3 V3+ 0.0070(6) 0.0097(6) 0.0078(7) 0. 0.0048(5) 0.
S3 S2- 0.0066(5) 0.0068(5) 0.0090(5) 0.0004(3) 0.0054(4) 0.0006(3)
#End of TTdata_239805-ICSD