
#(C) 2017 by FIZ Karlsruhe - Leibniz Institute for Information Infrastructure.  All rights reserved.
data_239952-ICSD
_database_code_ICSD 239952
_audit_creation_date 2017-08-01
_chemical_name_systematic
'Potassium dicalcium tetrairon tetraarsenide difluoride'
_chemical_formula_structural 'K Ca2 Fe4 As4 F2'
_chemical_formula_sum 'As4 Ca2 F2 Fe4 K1'
_exptl_crystal_density_diffrn 4.87
_publ_section_title
'Superconductivity in K Ca2 Fe4 As4 F2 with separate double Fe2 As2 layers'
loop_
_citation_id
_citation_journal_full
_citation_year
_citation_journal_volume
_citation_page_first
_citation_page_last
_citation_journal_id_ASTM
primary 'Journal of the American Chemical Society' 2016 138 7856 7859 JACSAT
loop_
_publ_author_name
'Wang, Zhi-Cheng'
'He, Chao-Yang'
'Wu, Si-Qi'
'Tang, Zhang-Tu'
'Liu, Yi'
'Ablimit, Abduweli'
'Feng, Chun-Mu'
'Cao, Guang-Han'
_cell_length_a 3.8684(2)
_cell_length_b 3.8684(2)
_cell_length_c 31.007(1)
_cell_angle_alpha 90
_cell_angle_beta 90
_cell_angle_gamma 90
_cell_volume 464.
_cell_formula_units_Z 2
_symmetry_space_group_name_H-M 'I 4/m m m'
_symmetry_Int_Tables_number 139
_refine_ls_R_factor_all 0.0404
loop_
_symmetry_equiv_pos_site_id
_symmetry_equiv_pos_as_xyz
1 'y, x, -z'
2 '-y, -x, -z'
3 '-y, x, -z'
4 'y, -x, -z'
5 '-x, y, -z'
6 'x, -y, -z'
7 'x, y, -z'
8 '-x, -y, -z'
9 '-y, -x, z'
10 'y, x, z'
11 'y, -x, z'
12 '-y, x, z'
13 'x, -y, z'
14 '-x, y, z'
15 '-x, -y, z'
16 'x, y, z'
17 'y+1/2, x+1/2, -z+1/2'
18 '-y+1/2, -x+1/2, -z+1/2'
19 '-y+1/2, x+1/2, -z+1/2'
20 'y+1/2, -x+1/2, -z+1/2'
21 '-x+1/2, y+1/2, -z+1/2'
22 'x+1/2, -y+1/2, -z+1/2'
23 'x+1/2, y+1/2, -z+1/2'
24 '-x+1/2, -y+1/2, -z+1/2'
25 '-y+1/2, -x+1/2, z+1/2'
26 'y+1/2, x+1/2, z+1/2'
27 'y+1/2, -x+1/2, z+1/2'
28 '-y+1/2, x+1/2, z+1/2'
29 'x+1/2, -y+1/2, z+1/2'
30 '-x+1/2, y+1/2, z+1/2'
31 '-x+1/2, -y+1/2, z+1/2'
32 'x+1/2, y+1/2, z+1/2'
loop_
_atom_type_symbol
_atom_type_oxidation_number
K1+ 1
Ca2+ 2
Fe2+ 2.25
As3- -3
F1- -1
loop_
_atom_site_label
_atom_site_type_symbol
_atom_site_symmetry_multiplicity
_atom_site_Wyckoff_symbol
_atom_site_fract_x
_atom_site_fract_y
_atom_site_fract_z
_atom_site_B_iso_or_equiv
_atom_site_occupancy
_atom_site_attached_hydrogens
K1 K1+ 2 a 0. 0. 0. 0.016 1. 0
Ca1 Ca2+ 4 e 0.5 0.5 0.2085(2) 0.00253 1. 0
Fe1 Fe2+ 8 g 0.5 0. 0.11080(9) 0.00253 1. 0
As1 As3- 4 e 0.5 0.5 0.06550(10) 0.005 1. 0
As2 As3- 4 e 0. 0. 0.15710(10) 0.004 1. 0
F1 F1- 4 d 0.5 0. 0.25 0.01267 1. 0
#End of TTdata_239952-ICSD