
#(C) 2017 by FIZ Karlsruhe - Leibniz Institute for Information Infrastructure.  All rights reserved.
data_240040-ICSD
_database_code_ICSD 240040
_audit_creation_date 2003-10-01
_audit_update_record 2015-02-01
_chemical_name_systematic 'Cesium mercury (5/19)'
_chemical_formula_structural 'Cs5 Hg19'
_chemical_formula_sum 'Cs5 Hg19'
_chemical_name_structure_type Cs5Hg19
_exptl_crystal_density_diffrn 9.87
_publ_section_title

;
Synthesis and Structure of the Alkali Metal Amalgams A3Hg20 (A=Rb,Cs), K3Hg11,
Cs5Hg19, and A7Hg31 (A=K,Rb)
;
loop_
_citation_id
_citation_journal_full
_citation_year
_citation_journal_volume
_citation_page_first
_citation_page_last
_citation_journal_id_ASTM
primary 'Journal of Solid State Chemistry' 2000 149 419 427 JSSCBI
loop_
_publ_author_name
'Todorov, E.'
'Sevov, S.C.'
_cell_length_a 11.803(3)
_cell_length_b 11.803(3)
_cell_length_c 10.814(5)
_cell_angle_alpha 90
_cell_angle_beta 90
_cell_angle_gamma 90
_cell_volume 1506.51
_cell_formula_units_Z 2
_symmetry_space_group_name_H-M 'I 4/m'
_symmetry_Int_Tables_number 87
_refine_ls_R_factor_all 0.0656
loop_
_symmetry_equiv_pos_site_id
_symmetry_equiv_pos_as_xyz
1 '-y, x, -z'
2 'y, -x, -z'
3 'x, y, -z'
4 '-x, -y, -z'
5 'y, -x, z'
6 '-y, x, z'
7 '-x, -y, z'
8 'x, y, z'
9 '-y+1/2, x+1/2, -z+1/2'
10 'y+1/2, -x+1/2, -z+1/2'
11 'x+1/2, y+1/2, -z+1/2'
12 '-x+1/2, -y+1/2, -z+1/2'
13 'y+1/2, -x+1/2, z+1/2'
14 '-y+1/2, x+1/2, z+1/2'
15 '-x+1/2, -y+1/2, z+1/2'
16 'x+1/2, y+1/2, z+1/2'
loop_
_atom_type_symbol
_atom_type_oxidation_number
Hg0+ 0
Cs0+ 0
loop_
_atom_site_label
_atom_site_type_symbol
_atom_site_symmetry_multiplicity
_atom_site_Wyckoff_symbol
_atom_site_fract_x
_atom_site_fract_y
_atom_site_fract_z
_atom_site_B_iso_or_equiv
_atom_site_occupancy
_atom_site_attached_hydrogens
Hg1 Hg0+ 16 i 0.2027(2) 0.3852(2) 0.1394(2) 0.0378(7) 1. 0
Hg2 Hg0+ 4 d 0 0.5 0.25 0.036(1) 1. 0
Hg3 Hg0+ 16 i 0.0795(2) 0.1726(2) 0.2180(2) 0.0410(7) 1. 0
Hg4 Hg0+ 2 a 0 0 0 0.049(2) 1. 0
Cs1 Cs0+ 8 h 0.3254(3) 0.1191(4) 0 0.031(1) 1. 0
Cs2 Cs0+ 2 b 0 0 0.5 0.039(2) 1. 0
loop_
_atom_site_aniso_label
_atom_site_aniso_type_symbol
_atom_site_aniso_U_11
_atom_site_aniso_U_22
_atom_site_aniso_U_33
_atom_site_aniso_U_12
_atom_site_aniso_U_13
_atom_site_aniso_U_23
Hg1 Hg0+ 0.038(1) 0.037(1) 0.038(1) 0.0030(9) 0.0007(8) -0.0016(9)
Hg2 Hg0+ 0.036(1) 0.036(1) 0.036(2) 0 0 0
Hg3 Hg0+ 0.0032(1) 0.043(1) 0.048(1) 0.0025(9) 0.002(1) 0.006(1)
Hg4 Hg0+ 0.054(2) 0.054(2) 0.039(3) 0 0 0
Cs1 Cs0+ 0.027(2) 0.036(2) 0.029(2) 0.002(2) 0 0
Cs2 Cs0+ 0.041(3) 0.041(3) 0.034(5) 0 0 0
#End of TTdata_240040-ICSD