
#(C) 2017 by FIZ Karlsruhe - Leibniz Institute for Information Infrastructure.  All rights reserved.
data_240016-ICSD
_database_code_ICSD 240016
_audit_creation_date 2003-10-01
_chemical_name_systematic 'Tribarium tetralithium octastannide'
_chemical_formula_structural 'Ba3 Li4 Sn8'
_chemical_formula_sum 'Ba3 Li4 Sn8'
_exptl_crystal_density_diffrn 5.54
_publ_section_title 'Synthesis, characterization and bonding of Ba3Li4Sn8'
loop_
_citation_id
_citation_journal_full
_citation_year
_citation_journal_volume
_citation_page_first
_citation_page_last
_citation_journal_id_ASTM
primary 'Journal of Alloys and Compounds' 2002 338 87 92 JALCEU
loop_
_publ_author_name
'Bobev, S.'
'Sevov, S.C.'
_cell_length_a 18.549(1)
_cell_length_b 6.685(1)
_cell_length_c 6.792(1)
_cell_angle_alpha 90
_cell_angle_beta 98.34(1)
_cell_angle_gamma 90
_cell_volume 833.3
_cell_formula_units_Z 2
_symmetry_space_group_name_H-M 'C 1 2/m 1'
_symmetry_Int_Tables_number 12
_refine_ls_R_factor_all 0.0403
loop_
_symmetry_equiv_pos_site_id
_symmetry_equiv_pos_as_xyz
1 '-x, y, -z'
2 '-x, -y, -z'
3 'x, -y, z'
4 'x, y, z'
5 '-x+1/2, y+1/2, -z'
6 '-x+1/2, -y+1/2, -z'
7 'x+1/2, -y+1/2, z'
8 'x+1/2, y+1/2, z'
loop_
_atom_type_symbol
_atom_type_oxidation_number
Sn0+ 0
Ba0+ 0
Li0+ 0
loop_
_atom_site_label
_atom_site_type_symbol
_atom_site_symmetry_multiplicity
_atom_site_Wyckoff_symbol
_atom_site_fract_x
_atom_site_fract_y
_atom_site_fract_z
_atom_site_B_iso_or_equiv
_atom_site_occupancy
_atom_site_attached_hydrogens
Sn1 Sn0+ 4 i 0.12920(4) 0 0.4541(1) 0.0142(2) 1. 0
Sn2 Sn0+ 4 i 0.48483(4) 0 0.2020(1) 0.0145(2) 1. 0
Sn3 Sn0+ 8 j 0.85055(3) 0.73248(8) 0.19789(8) 0.0141(2) 1. 0
Ba1 Ba0+ 2 a 0 0 0 0.0135(2) 1. 0
Ba2 Ba0+ 4 i 0.32245(4) 0 0.6913(1) 0.0153(2) 1. 0
Li1 Li0+ 4 h 0 0.787(4) 0.5 0.029(5) 1. 0
Li2 Li0+ 4 i 0.209(1) 0 0.130(4) 0.022(4) 1. 0
#End of TTdata_240016-ICSD