
#(C) 2017 by FIZ Karlsruhe - Leibniz Institute for Information Infrastructure.  All rights reserved.
data_240132-ICSD
_database_code_ICSD 240132
_audit_creation_date 2004-10-01
_chemical_name_systematic 'Strontium indium (3/11)'
_chemical_formula_structural 'Sr3 In11'
_chemical_formula_sum 'In11 Sr3'
_chemical_name_structure_type Al11La3
_exptl_crystal_density_diffrn 6.21
_publ_section_title

;
Structure and bonding of Sr3 In11: How size and electronic effects determine
structural stability of polar intermetallic compounds
;
loop_
_citation_id
_citation_journal_full
_citation_year
_citation_journal_volume
_citation_page_first
_citation_page_last
_citation_journal_id_ASTM
primary 'Inorganic Chemistry' 2003 42 7782 7788 INOCAJ
loop_
_publ_author_name
'Amerioun, S.'
'Haeussermann, U.'
_cell_length_a 4.9688
_cell_length_b 14.4068
_cell_length_c 11.3971
_cell_angle_alpha 90
_cell_angle_beta 90
_cell_angle_gamma 90
_cell_volume 815.86
_cell_formula_units_Z 2
_symmetry_space_group_name_H-M 'I m m m'
_symmetry_Int_Tables_number 71
loop_
_symmetry_equiv_pos_site_id
_symmetry_equiv_pos_as_xyz
1 'x, y, -z'
2 'x, -y, z'
3 '-x, y, z'
4 '-x, -y, -z'
5 '-x, -y, z'
6 '-x, y, -z'
7 'x, -y, -z'
8 'x, y, z'
9 'x+1/2, y+1/2, -z+1/2'
10 'x+1/2, -y+1/2, z+1/2'
11 '-x+1/2, y+1/2, z+1/2'
12 '-x+1/2, -y+1/2, -z+1/2'
13 '-x+1/2, -y+1/2, z+1/2'
14 '-x+1/2, y+1/2, -z+1/2'
15 'x+1/2, -y+1/2, -z+1/2'
16 'x+1/2, y+1/2, z+1/2'
loop_
_atom_type_symbol
_atom_type_oxidation_number
Sr0+ 0
In0+ 0
loop_
_atom_site_label
_atom_site_type_symbol
_atom_site_symmetry_multiplicity
_atom_site_Wyckoff_symbol
_atom_site_fract_x
_atom_site_fract_y
_atom_site_fract_z
_atom_site_B_iso_or_equiv
_atom_site_occupancy
_atom_site_attached_hydrogens
Sr1 Sr0+ 2 a 0 0 0 . 1. 0
Sr2 Sr0+ 4 g 0 0.3104 0 . 1. 0
In1 In0+ 2 c 0.5 0.5 0 . 1. 0
In2 In0+ 4 j 0.5 0 0.6944 . 1. 0
In3 In0+ 8 l 0 0.3424 0.373 . 1. 0
In4 In0+ 8 l 0 0.147 0.2757 . 1. 0
#End of TTdata_240132-ICSD