
#(C) 2017 by FIZ Karlsruhe - Leibniz Institute for Information Infrastructure.  All rights reserved.
data_24012-ICSD
_database_code_ICSD 24012
_audit_creation_date 1980-01-01
_audit_update_record 2010-02-01
_chemical_name_systematic 'Ammonium nitrate(V) - III'
_chemical_formula_structural '(N H4) (N O3)'
_chemical_formula_sum 'H4 N2 O3'
_chemical_name_structure_type NH4NO3(III)
_exptl_crystal_density_diffrn 1.69
_cell_measurement_temperature 308.
_publ_section_title

;
Molecular rotation in the solid state. The variation of the crystal structure
of ammonium nitrate with temperature
;
loop_
_citation_id
_citation_journal_full
_citation_year
_citation_journal_volume
_citation_page_first
_citation_page_last
_citation_journal_id_ASTM
primary 'Journal of the American Chemical Society' 1932 54 2766 2786 JACSAT
loop_
_publ_author_name
'Hendricks, S.B.'
'Posnjak, E.'
'Kracek, F.C.'
_cell_length_a 7.075
_cell_length_b 7.675
_cell_length_c 5.81
_cell_angle_alpha 90.
_cell_angle_beta 90.
_cell_angle_gamma 90.
_cell_volume 315.49
_cell_formula_units_Z 4
_symmetry_space_group_name_H-M 'P b n m'
_symmetry_Int_Tables_number 62
loop_
_symmetry_equiv_pos_site_id
_symmetry_equiv_pos_as_xyz
1 '-x+1/2, y+1/2, z'
2 'x, y, -z+1/2'
3 'x+1/2, -y+1/2, z+1/2'
4 '-x, -y, -z'
5 'x+1/2, -y+1/2, -z'
6 '-x, -y, z+1/2'
7 '-x+1/2, y+1/2, -z+1/2'
8 'x, y, z'
loop_
_atom_type_symbol
_atom_type_oxidation_number
N3- -3
N5+ 5
O2- -2
H1+ 1
loop_
_atom_site_label
_atom_site_type_symbol
_atom_site_symmetry_multiplicity
_atom_site_Wyckoff_symbol
_atom_site_fract_x
_atom_site_fract_y
_atom_site_fract_z
_atom_site_B_iso_or_equiv
_atom_site_occupancy
_atom_site_attached_hydrogens
N1 N3- 4 c 0.3 0.52 0.25 . 1. 0
N2 N5+ 4 c -.09 -.19 0.25 . 1. 0
O1 O2- 4 c -.19 -.05 0.25 . 1. 0
O2 O2- 8 d -.07 -.27 0.06 . 1. 0
#End of TTdata_24012-ICSD