
#(C) 2017 by FIZ Karlsruhe - Leibniz Institute for Information Infrastructure.  All rights reserved.
data_24039-ICSD
_database_code_ICSD 24039
_audit_creation_date 1980-01-01
_audit_update_record 2007-08-01
_chemical_name_systematic 'Molybdenum oxide dihydrate'
_chemical_formula_structural 'Mo O3 (H2 O)2'
_chemical_formula_sum 'H4 Mo1 O5'
_exptl_crystal_density_diffrn 3.13
_publ_section_title
'T0e crystal structure of the yellow molybdic acid, Mo O3 (H2 O)2'
loop_
_citation_id
_citation_journal_full
_citation_year
_citation_journal_volume
_citation_page_first
_citation_page_last
_citation_journal_id_ASTM
primary 'Acta Chemica Scandinavica (1-27,1973-42,1988)' 1950 4 650 657 ACSAA4
loop_
_publ_author_name
'Lindqvist, I.'
_cell_length_a 7.34
_cell_length_b 6.91
_cell_length_c 3.77
_cell_angle_alpha 90.
_cell_angle_beta 90.67
_cell_angle_gamma 90.
_cell_volume 191.2
_cell_formula_units_Z 2
_symmetry_space_group_name_H-M 'P 1 2/m 1'
_symmetry_Int_Tables_number 10
loop_
_symmetry_equiv_pos_site_id
_symmetry_equiv_pos_as_xyz
1 '-x, y, -z'
2 '-x, -y, -z'
3 'x, -y, z'
4 'x, y, z'
loop_
_atom_type_symbol
_atom_type_oxidation_number
Mo6+ 6
O2- -2
H1+ 1
loop_
_atom_site_label
_atom_site_type_symbol
_atom_site_symmetry_multiplicity
_atom_site_Wyckoff_symbol
_atom_site_fract_x
_atom_site_fract_y
_atom_site_fract_z
_atom_site_B_iso_or_equiv
_atom_site_occupancy
_atom_site_attached_hydrogens
Mo1 Mo6+ 2 m 0.25 0 0.07 . 1. 0
O1 O2- 1 a 0 0 0 . 1. 0
O2 O2- 1 d 0.5 0 0 . 1. 0
O3 O2- 1 f 0 0.5 0.5 . 1. 0
O4 O2- 1 h 0.5 0.5 0.5 . 1. 0
O5 O2- 2 m 0.25 0 0.57 . 1. 0
O6 O2- 4 o 0.25 0.27 0.07 . 1. 0
#End of TTdata_24039-ICSD