
data_24047-ICSD
_database_code_ICSD 24047
_audit_creation_date 1980-01-01
_chemical_name_systematic 'Boron oxide'
_chemical_formula_structural 'B2 O3'
_chemical_formula_sum 'B2 O3'
_chemical_name_structure_type B2O3
_exptl_crystal_density_diffrn 2.56
_cell_length_a 4.334
_cell_length_b 4.334
_cell_length_c 8.334
_cell_angle_alpha 90.
_cell_angle_beta 90.
_cell_angle_gamma 120.
_cell_volume 135.57
_cell_formula_units_Z 3
_symmetry_space_group_name_H-M 'P 31'
_symmetry_Int_Tables_number 144
loop_
_symmetry_equiv_pos_site_id
_symmetry_equiv_pos_as_xyz
1 '-x+y, -x, z+2/3'
2 '-y, x-y, z+1/3'
3 'x, y, z'
loop_
_atom_type_symbol
_atom_type_oxidation_number
B3+ 3
O2- -2
loop_
_atom_site_label
_atom_site_type_symbol
_atom_site_symmetry_multiplicity
_atom_site_Wyckoff_symbol
_atom_site_fract_x
_atom_site_fract_y
_atom_site_fract_z
_atom_site_B_iso_or_equiv
_atom_site_occupancy
_atom_site_attached_hydrogens
B1 B3+ 3 a 0.54 0.15 0.02 . 1. 0
B2 B3+ 3 a 0.59 0.77 0.26 . 1. 0
O1 O2- 3 a 0.2 0.15 0 . 1. 0
O2 O2- 3 a 0.46 0.79 0.07 . 1. 0
O3 O2- 3 a 0.51 0.23 0.56 . 1. 0
