
#(C) 2017 by FIZ Karlsruhe - Leibniz Institute for Information Infrastructure.  All rights reserved.
data_240779-ICSD
_database_code_ICSD 240779
_audit_creation_date 2008-02-01
_chemical_name_systematic 'Strontium hexasilicide'
_chemical_formula_structural 'Sr Si6'
_chemical_formula_sum 'Si6 Sr1'
_chemical_name_structure_type Eu4Ga8Ge16
_exptl_crystal_density_diffrn 3.18
_publ_section_title 'High-pressure synthesis of strontium hexasilicide'
loop_
_citation_id
_citation_journal_full
_citation_year
_citation_journal_volume
_citation_page_first
_citation_page_last
_citation_journal_id_ASTM
primary 'Zeitschrift fuer Naturforschung, B: Chemical Sciences' 2006 61 1485
1492 ZNBSEN
loop_
_publ_author_name
'Wosylus, A.'
'Prots', Yu.'
'Burkhardt, U.'
'Schnelle, W.'
'Schwarz, U.'
'Grin', Yu.'
_cell_length_a 4.4602(4)
_cell_length_b 10.2560(10)
_cell_length_c 11.6980(10)
_cell_angle_alpha 90.
_cell_angle_beta 90.
_cell_angle_gamma 90.
_cell_volume 535.11
_cell_formula_units_Z 4
_symmetry_space_group_name_H-M 'C m c m'
_symmetry_Int_Tables_number 63
loop_
_symmetry_equiv_pos_site_id
_symmetry_equiv_pos_as_xyz
1 '-x, y, -z+1/2'
2 '-x, -y, z+1/2'
3 '-x, y, z'
4 '-x, -y, -z'
5 'x, -y, z+1/2'
6 'x, y, -z+1/2'
7 'x, -y, -z'
8 'x, y, z'
9 '-x+1/2, y+1/2, -z+1/2'
10 '-x+1/2, -y+1/2, z+1/2'
11 '-x+1/2, y+1/2, z'
12 '-x+1/2, -y+1/2, -z'
13 'x+1/2, -y+1/2, z+1/2'
14 'x+1/2, y+1/2, -z+1/2'
15 'x+1/2, -y+1/2, -z'
16 'x+1/2, y+1/2, z'
loop_
_atom_type_symbol
_atom_type_oxidation_number
Sr0+ 0
Si0+ 0
loop_
_atom_site_label
_atom_site_type_symbol
_atom_site_symmetry_multiplicity
_atom_site_Wyckoff_symbol
_atom_site_fract_x
_atom_site_fract_y
_atom_site_fract_z
_atom_site_B_iso_or_equiv
_atom_site_occupancy
_atom_site_attached_hydrogens
Sr1 Sr0+ 4 c 0 0.27213(8) 0.25 0.0139(2) 1. 0
Si1 Si0+ 8 f 0 0.2474(2) 0.5381(1) 0.0103(4) 1. 0
Si2 Si0+ 8 f 0 0.5578(2) 0.3527(1) 0.0110(4) 1. 0
Si3 Si0+ 8 f 0 0.0234(2) 0.6009(2) 0.0117(4) 1. 0
loop_
_atom_site_aniso_label
_atom_site_aniso_type_symbol
_atom_site_aniso_U_11
_atom_site_aniso_U_22
_atom_site_aniso_U_33
_atom_site_aniso_U_12
_atom_site_aniso_U_13
_atom_site_aniso_U_23
Sr1 Sr0+ 0.0162(4) 0.0128(4) 0.0127(4) 0 0 0
Si1 Si0+ 0.0084(7) 0.0120(7) 0.0105(7) 0 0 0.0000(6)
Si2 Si0+ 0.0130(8) 0.0101(7) 0.0100(7) 0 0 -0.0011(6)
Si3 Si0+ 0.0083(7) 0.0127(8) 0.0140(7) 0 0 0.0005(6)
#End of TTdata_240779-ICSD