
data_240906-ICSD
_database_code_ICSD 240906
_audit_creation_date 2008-08-01
_chemical_name_systematic 'Zirconium germanium tetratelluride'
_chemical_formula_structural 'Zr Ge Te4'
_chemical_formula_sum 'Ge1 Te4 Zr1'
_chemical_name_structure_type BaCuF4
_exptl_crystal_density_diffrn 6.42
_cell_measurement_temperature 150.
_cell_length_a 3.9794(2)
_cell_length_b 15.9296(10)
_cell_length_c 10.9957(6)
_cell_angle_alpha 90
_cell_angle_beta 90
_cell_angle_gamma 90
_cell_volume 697.02
_cell_formula_units_Z 4
_symmetry_space_group_name_H-M 'C m c 21'
_symmetry_Int_Tables_number 36
_refine_ls_R_factor_all 0.036
loop_
_symmetry_equiv_pos_site_id
_symmetry_equiv_pos_as_xyz
1 'x, -y, z+1/2'
2 '-x, -y, z+1/2'
3 '-x, y, z'
4 'x, y, z'
5 'x+1/2, -y+1/2, z+1/2'
6 '-x+1/2, -y+1/2, z+1/2'
7 '-x+1/2, y+1/2, z'
8 'x+1/2, y+1/2, z'
loop_
_atom_type_symbol
_atom_type_oxidation_number
Zr4+ 4
Ge4+ 4
Te2- -2
loop_
_atom_site_label
_atom_site_type_symbol
_atom_site_symmetry_multiplicity
_atom_site_Wyckoff_symbol
_atom_site_fract_x
_atom_site_fract_y
_atom_site_fract_z
_atom_site_B_iso_or_equiv
_atom_site_occupancy
_atom_site_attached_hydrogens
Zr1 Zr4+ 4 a 0. 0.34835(8) 0.77333(11) 0.0065(3) 1 0
Ge1 Ge4+ 4 a 0. 0.22779(8) 0.96377(13) 0.0077(3) 1 0
Te1 Te2- 4 a 0.5 0.48455(5) 0.74420(8) 0.0083(2) 1 0
Te2 Te2- 4 a 0.5 0.39999(5) 0.96079(7) 0.0084(2) 1 0
Te3 Te2- 4 a 0.5 0.22096(6) 0.69689(7) 0.0070(2) 1 0
Te4 Te2- 4 a 0. 0.38129(5) 0.50002(7) 0.0073(2) 1 0
loop_
_atom_site_aniso_label
_atom_site_aniso_type_symbol
_atom_site_aniso_U_11
_atom_site_aniso_U_22
_atom_site_aniso_U_33
_atom_site_aniso_U_12
_atom_site_aniso_U_13
_atom_site_aniso_U_23
Zr1 Zr4+ 0.0068(5) 0.0086(6) 0.0042(5) 0. 0. 0.0001(5)
Ge1 Ge4+ 0.0079(5) 0.0108(7) 0.0044(5) 0. 0. 0.0008(5)
Te1 Te2- 0.0089(3) 0.0097(5) 0.0065(4) 0. 0. 0.0001(3)
Te2 Te2- 0.0087(3) 0.0117(5) 0.0048(4) 0. 0. -0.0012(3)
Te3 Te2- 0.0082(3) 0.0087(4) 0.0042(4) 0. 0. -0.0010(3)
Te4 Te2- 0.0071(3) 0.0094(4) 0.0053(4) 0. 0. 0.0006(3)
