
data_241122-ICSD
_database_code_ICSD 241122
_audit_creation_date 2008-08-01
_chemical_name_systematic 'Hafnium germanium telluride'
_chemical_formula_structural 'Ge Hf Te4'
_chemical_formula_sum 'Ge1 Hf1 Te4'
_exptl_crystal_density_diffrn 7.26
_cell_measurement_temperature 290.
_cell_length_a 3.97951(17)
_cell_length_b 15.9530(7)
_cell_length_c 10.9731(7)
_cell_angle_alpha 90
_cell_angle_beta 90
_cell_angle_gamma 90
_cell_volume 696.63
_cell_formula_units_Z 4
_symmetry_space_group_name_H-M 'C m c 21'
_symmetry_Int_Tables_number 36
_refine_ls_R_factor_all 0.0233
loop_
_symmetry_equiv_pos_site_id
_symmetry_equiv_pos_as_xyz
1 'x, -y, z+1/2'
2 '-x, -y, z+1/2'
3 '-x, y, z'
4 'x, y, z'
5 'x+1/2, -y+1/2, z+1/2'
6 '-x+1/2, -y+1/2, z+1/2'
7 '-x+1/2, y+1/2, z'
8 'x+1/2, y+1/2, z'
loop_
_atom_type_symbol
_atom_type_oxidation_number
Hf0+ 0
Ge0+ 0
Te0+ 0
loop_
_atom_site_label
_atom_site_type_symbol
_atom_site_symmetry_multiplicity
_atom_site_Wyckoff_symbol
_atom_site_fract_x
_atom_site_fract_y
_atom_site_fract_z
_atom_site_B_iso_or_equiv
_atom_site_occupancy
_atom_site_attached_hydrogens
Hf1 Hf0+ 4 a 0. 0.65202(3) 0.22820(5) 0.01067(17) 1 0
Ge1 Ge0+ 4 a 0. 0.22772(8) 0.53878(13) 0.0113(3) 1 0
Te1 Te0+ 4 a 0. 0.01673(5) 0.25689(9) 0.0129(2) 1 0
Te2 Te0+ 4 a 0. 0.10126(5) 0.03966(9) 0.0126(2) 1 0
Te3 Te0+ 4 a 0. 0.27773(5) 0.30414(8) 0.0102(2) 1 0
Te4 Te0+ 4 a 0. 0.38127(5) 0.00017(8) 0.0106(2) 1 0
loop_
_atom_site_aniso_label
_atom_site_aniso_type_symbol
_atom_site_aniso_U_11
_atom_site_aniso_U_22
_atom_site_aniso_U_33
_atom_site_aniso_U_12
_atom_site_aniso_U_13
_atom_site_aniso_U_23
Hf1 Hf0+ 0.0113(3) 0.0107(3) 0.0100(3) 0 0 0.0000(2)
Ge1 Ge0+ 0.0118(6) 0.0112(7) 0.0108(8) 0 0 0.0012(6)
Te1 Te0+ 0.0140(4) 0.0100(4) 0.0147(5) 0 0 0.0008(4)
Te2 Te0+ 0.0142(4) 0.0130(4) 0.0106(5) 0 0 -0.0012(4)
Te3 Te0+ 0.0116(3) 0.0093(4) 0.0097(4) 0 0 -0.0010(3)
Te4 Te0+ 0.0118(4) 0.0087(4) 0.0111(5) 0 0 0.0002(3)
