
#(C) 2017 by FIZ Karlsruhe - Leibniz Institute for Information Infrastructure.  All rights reserved.
data_24110-ICSD
_database_code_ICSD 24110
_audit_creation_date 1980-01-01
_audit_update_record 1988-01-26
_chemical_name_systematic 'Niobium oxide phosphate'
_chemical_formula_structural 'Nb O P O4'
_chemical_formula_sum 'Nb1 O5 P1'
_chemical_name_structure_type VOSO4-alpha
_exptl_crystal_density_diffrn 4.04
_publ_section_title 'The Crystal Structure of Nb O P O4'
loop_
_citation_id
_citation_journal_full
_citation_year
_citation_journal_volume
_citation_page_first
_citation_page_last
_citation_journal_id_ASTM
primary 'Acta Chemica Scandinavica (1-27,1973-42,1988)' 1966 20 72 78 ACSAA4
loop_
_publ_author_name
'Longo, J.M.'
'Kierkegaard, P.'
_cell_length_a 6.3873(10)
_cell_length_b 6.3873(10)
_cell_length_c 4.1037(8)
_cell_angle_alpha 90.
_cell_angle_beta 90.
_cell_angle_gamma 90.
_cell_volume 167.42
_cell_formula_units_Z 2
_symmetry_space_group_name_H-M 'P 4/n Z'
_symmetry_Int_Tables_number 85
_refine_ls_R_factor_all 0.058
loop_
_symmetry_equiv_pos_site_id
_symmetry_equiv_pos_as_xyz
1 '-y, x+1/2, -z'
2 'y+1/2, -x, -z'
3 'x+1/2, y+1/2, -z'
4 '-x, -y, -z'
5 'y, -x+1/2, z'
6 '-y+1/2, x, z'
7 '-x+1/2, -y+1/2, z'
8 'x, y, z'
loop_
_atom_type_symbol
_atom_type_oxidation_number
Nb5+ 5
P5+ 5
O2- -2
loop_
_atom_site_label
_atom_site_type_symbol
_atom_site_symmetry_multiplicity
_atom_site_Wyckoff_symbol
_atom_site_fract_x
_atom_site_fract_y
_atom_site_fract_z
_atom_site_B_iso_or_equiv
_atom_site_occupancy
_atom_site_attached_hydrogens
Nb1 Nb5+ 2 c 0.25 0.25 0.7828(4) 0.75 1. 0
P1 P5+ 2 b 0.25 0.75 0.5 1.08 1. 0
O1 O2- 2 c 0.25 0.25 0.2172(28) 0.89 1. 0
O2 O2- 8 g 0.7737(14) 0.4462(14) 0.2902(24) 1.76 1. 0
#End of TTdata_24110-ICSD