
#(C) 2017 by FIZ Karlsruhe - Leibniz Institute for Information Infrastructure.  All rights reserved.
data_24161-ICSD
_database_code_ICSD 24161
_audit_creation_date 1980-01-01
_audit_update_record 2015-02-01
_chemical_name_systematic 'Iron antimony sulfide (1/1/1)'
_chemical_formula_structural 'Fe Sb S'
_chemical_formula_sum 'Fe1 S1 Sb1'
_chemical_name_structure_type FeAsS-CoSb2
_chemical_name_mineral Gudmundite
_exptl_crystal_density_diffrn 7.
_publ_section_title 'The crystal structure of gudmundite'
loop_
_citation_id
_citation_journal_full
_citation_year
_citation_journal_volume
_citation_page_first
_citation_page_last
_citation_journal_id_ASTM
primary 'American Mineralogist' 1939 24 183 184 AMMIAY
loop_
_publ_author_name
'Buerger, M.J.'
_cell_length_a 6.02
_cell_length_b 5.93
_cell_length_c 6.02
_cell_angle_alpha 90.
_cell_angle_beta 67.87
_cell_angle_gamma 90.
_cell_volume 199.07
_cell_formula_units_Z 4
_symmetry_space_group_name_H-M 'P 1 21/c 1'
_symmetry_Int_Tables_number 14
loop_
_symmetry_equiv_pos_site_id
_symmetry_equiv_pos_as_xyz
1 'x, -y+1/2, z+1/2'
2 '-x, -y, -z'
3 '-x, y+1/2, -z+1/2'
4 'x, y, z'
loop_
_atom_type_symbol
_atom_type_oxidation_number
Fe0+ 0
Sb0+ 0
S0+ 0
loop_
_atom_site_label
_atom_site_type_symbol
_atom_site_symmetry_multiplicity
_atom_site_Wyckoff_symbol
_atom_site_fract_x
_atom_site_fract_y
_atom_site_fract_z
_atom_site_B_iso_or_equiv
_atom_site_occupancy
_atom_site_attached_hydrogens
Fe1 Fe0+ 4 e -.3 0.015 0.3 . 1. 0
Sb1 Sb0+ 4 e 0.149 0.131 0.132 . 1. 0
S1 S0+ 4 e -.356 0.145 0.667 . 1. 0
#End of TTdata_24161-ICSD