
#(C) 2017 by FIZ Karlsruhe - Leibniz Institute for Information Infrastructure.  All rights reserved.
data_242297-ICSD
_database_code_ICSD 242297
_audit_creation_date 2017-08-01
_chemical_name_systematic 'Lanthanum palladium indide (1/1/4)'
_chemical_formula_structural 'La Pd In4'
_chemical_formula_sum 'In4 La1 Pd1'
_chemical_name_structure_type Al4NiY
_exptl_crystal_density_diffrn 8.32
_cell_measurement_temperature 100.
_publ_section_title

;
The LaPdIn4 indide and elementary properties of the LaTIn4 (T=Ni, Pd, Pt)
materials family
;
loop_
_citation_id
_citation_journal_full
_citation_year
_citation_journal_volume
_citation_page_first
_citation_page_last
_citation_journal_id_ASTM
primary 'Journal of Alloys and Compounds' 2017 694 682 686 JALCEU
loop_
_publ_author_name
'Carnicom, E.M.'
'Xie, W.W.'
'Seibel, E.M.'
'Klimczuk, T.'
'Cava, R.J.'
_cell_length_a 4.5462(3)
_cell_length_b 16.9208(10)
_cell_length_c 7.3100(5)
_cell_angle_alpha 90
_cell_angle_beta 90
_cell_angle_gamma 90
_cell_volume 562.32
_cell_formula_units_Z 4
_symmetry_space_group_name_H-M 'C m c m'
_symmetry_Int_Tables_number 63
_refine_ls_R_factor_all 0.0414
loop_
_symmetry_equiv_pos_site_id
_symmetry_equiv_pos_as_xyz
1 '-x, y, -z+1/2'
2 '-x, -y, z+1/2'
3 '-x, y, z'
4 '-x, -y, -z'
5 'x, -y, z+1/2'
6 'x, y, -z+1/2'
7 'x, -y, -z'
8 'x, y, z'
9 '-x+1/2, y+1/2, -z+1/2'
10 '-x+1/2, -y+1/2, z+1/2'
11 '-x+1/2, y+1/2, z'
12 '-x+1/2, -y+1/2, -z'
13 'x+1/2, -y+1/2, z+1/2'
14 'x+1/2, y+1/2, -z+1/2'
15 'x+1/2, -y+1/2, -z'
16 'x+1/2, y+1/2, z'
loop_
_atom_type_symbol
_atom_type_oxidation_number
La0+ 0
In0+ 0
Pd0+ 0
loop_
_atom_site_label
_atom_site_type_symbol
_atom_site_symmetry_multiplicity
_atom_site_Wyckoff_symbol
_atom_site_fract_x
_atom_site_fract_y
_atom_site_fract_z
_atom_site_B_iso_or_equiv
_atom_site_occupancy
_atom_site_attached_hydrogens
La1 La0+ 4 c 0. 0.11943(6) 0.25 0.0130(5) 1 0
In1 In0+ 4 c 0. 0.92993(9) 0.25 0.0129(5) 1 0
In2 In0+ 4 b 0. 0.5 0. 0.0126(5) 1 0
In3 In0+ 8 f 0. 0.31605(5) 0.04988(14) 0.0131(4) 1 0
Pd1 Pd0+ 4 c 0. 0.77466(7) 0.25 0.0139(5) 1 0
loop_
_atom_site_aniso_label
_atom_site_aniso_type_symbol
_atom_site_aniso_U_11
_atom_site_aniso_U_22
_atom_site_aniso_U_33
_atom_site_aniso_U_12
_atom_site_aniso_U_13
_atom_site_aniso_U_23
La1 La0+ 0.0031(8) 0.0220(6) 0.0139(7) 0. 0. 0.
In1 In0+ 0.0030(8) 0.0216(7) 0.0136(8) 0. 0. 0.
In2 In0+ 0.0029(8) 0.0207(7) 0.0131(8) 0. 0. 0.0005(5)
In3 In0+ 0.0029(7) 0.0209(6) 0.0154(7) 0. 0. 0.0002(3)
Pd1 Pd0+ 0.0050(8) 0.0215(7) 0.0154(8) 0. 0. 0.
#End of TTdata_242297-ICSD