
#(C) 2017 by FIZ Karlsruhe - Leibniz Institute for Information Infrastructure.  All rights reserved.
data_2426-ICSD
_database_code_ICSD 2426
_audit_creation_date 1980-01-01
_audit_update_record 2012-08-01
_chemical_name_systematic 'Trisilver triselenoarsenate(III) - HT'
_chemical_formula_structural 'Ag3 (As Se3)'
_chemical_formula_sum 'Ag3 As1 Se3'
_chemical_name_structure_type Proustite
_exptl_crystal_density_diffrn 6.54
_publ_section_title 'Silver orthoselenoarsenite'
loop_
_citation_id
_citation_journal_full
_citation_year
_citation_journal_volume
_citation_page_first
_citation_page_last
_citation_journal_id_ASTM
primary 'Acta Crystallographica B (24,1968-38,1982)' 1978 34 3326 3328 ACBCAR
loop_
_publ_author_name
'Sakai, K.'
'Koide, T.'
'Matsumoto, T.'
_cell_length_a 11.298(3)
_cell_length_b 11.298(3)
_cell_length_c 8.757(3)
_cell_angle_alpha 90.
_cell_angle_beta 90.
_cell_angle_gamma 120.
_cell_volume 968.03
_cell_formula_units_Z 6
_symmetry_space_group_name_H-M 'R 3 c H'
_symmetry_Int_Tables_number 161
_refine_ls_R_factor_all 0.069
loop_
_symmetry_equiv_pos_site_id
_symmetry_equiv_pos_as_xyz
1 '-x+y, y, z+1/2'
2 'x, x-y, z+1/2'
3 '-y, -x, z+1/2'
4 '-x+y, -x, z'
5 '-y, x-y, z'
6 'x, y, z'
7 '-x+y+2/3, y+1/3, z+5/6'
8 'x+2/3, x-y+1/3, z+5/6'
9 '-y+2/3, -x+1/3, z+5/6'
10 '-x+y+2/3, -x+1/3, z+1/3'
11 '-y+2/3, x-y+1/3, z+1/3'
12 'x+2/3, y+1/3, z+1/3'
13 '-x+y+1/3, y+2/3, z+1/6'
14 'x+1/3, x-y+2/3, z+1/6'
15 '-y+1/3, -x+2/3, z+1/6'
16 '-x+y+1/3, -x+2/3, z+2/3'
17 '-y+1/3, x-y+2/3, z+2/3'
18 'x+1/3, y+2/3, z+2/3'
loop_
_atom_type_symbol
_atom_type_oxidation_number
Ag1+ 1
As3+ 3
Se2- -2
loop_
_atom_site_label
_atom_site_type_symbol
_atom_site_symmetry_multiplicity
_atom_site_Wyckoff_symbol
_atom_site_fract_x
_atom_site_fract_y
_atom_site_fract_z
_atom_site_B_iso_or_equiv
_atom_site_occupancy
_atom_site_attached_hydrogens
Ag1 Ag1+ 18 b 0.2498(9) 0.3066(8) 0.2281(14) . 1. 0
As1 As3+ 6 a 0 0 0 . 1. 0
Se1 Se2- 18 b 0.2144(4) 0.0946(4) 0.3653(9) . 1. 0
loop_
_atom_site_aniso_label
_atom_site_aniso_type_symbol
_atom_site_aniso_beta_11
_atom_site_aniso_beta_22
_atom_site_aniso_beta_33
_atom_site_aniso_beta_12
_atom_site_aniso_beta_13
_atom_site_aniso_beta_23
Ag1 Ag1+ 0.0302(17) 0.0186(12) 0.0277(15) 0.0132(12) 0.0077(14) 0.0164(12)
As1 As3+ 0.0040(6) 0.0040(6) 0.0030(8) 0.0020(3) 0 0
Se1 Se2- 0.0038(4) 0.0058(5) 0.0098(6) 0.0019(4) 0.0015(5) 0.0004(6)
#End of TTdata_2426-ICSD