
#(C) 2017 by FIZ Karlsruhe - Leibniz Institute for Information Infrastructure.  All rights reserved.
data_24386-ICSD
_database_code_ICSD 24386
_audit_creation_date 1981-12-31
_audit_update_record 2011-02-01
_chemical_name_systematic 'Barium digallium selenide'
_chemical_formula_structural 'Ba Ga2 Se4'
_chemical_formula_sum 'Ba1 Ga2 Se4'
_chemical_name_structure_type BaGe2Se4
_exptl_crystal_density_diffrn 4.86
_publ_section_title

;
Darstellung und Struktur von Ba Al2 Se4, Ba Ga2 Se4, Ca Ga2 Se4 und Ca In2 Te4
;
loop_
_citation_id
_citation_journal_full
_citation_year
_citation_journal_volume
_citation_page_first
_citation_page_last
_citation_journal_id_ASTM
primary 'Zeitschrift fuer Anorganische und Allgemeine Chemie (1950) (DE)' 1981
479 125 133 ZAACAB
loop_
_publ_author_name
'Klee, W.'
'Schaefer, H.'
_cell_length_a 6.48(1)
_cell_length_b 11.13(2)
_cell_length_c 11.24(2)
_cell_angle_alpha 90.
_cell_angle_beta 90.
_cell_angle_gamma 90.
_cell_volume 810.66
_cell_formula_units_Z 4
_symmetry_space_group_name_H-M 'C c c m'
_symmetry_Int_Tables_number 66
_refine_ls_R_factor_all 0.083
loop_
_symmetry_equiv_pos_site_id
_symmetry_equiv_pos_as_xyz
1 '-x, y, z+1/2'
2 'x, -y, z+1/2'
3 'x, y, -z'
4 '-x, -y, -z'
5 'x, -y, -z+1/2'
6 '-x, y, -z+1/2'
7 '-x, -y, z'
8 'x, y, z'
9 '-x+1/2, y+1/2, z+1/2'
10 'x+1/2, -y+1/2, z+1/2'
11 'x+1/2, y+1/2, -z'
12 '-x+1/2, -y+1/2, -z'
13 'x+1/2, -y+1/2, -z+1/2'
14 '-x+1/2, y+1/2, -z+1/2'
15 '-x+1/2, -y+1/2, z'
16 'x+1/2, y+1/2, z'
loop_
_atom_type_symbol
_atom_type_oxidation_number
Ba2+ 2
Ga3+ 3
Se2- -2
loop_
_atom_site_label
_atom_site_type_symbol
_atom_site_symmetry_multiplicity
_atom_site_Wyckoff_symbol
_atom_site_fract_x
_atom_site_fract_y
_atom_site_fract_z
_atom_site_B_iso_or_equiv
_atom_site_occupancy
_atom_site_attached_hydrogens
Ba1 Ba2+ 4 b 0 0.5 0.25 0.034(2) 1. 0
Ga1 Ga3+ 8 l 0.0092(80) 0.2429(9) 0 0.039(3) 1. 0
Se1 Se2- 8 l 0.2303(56) 0.4144(8) 0 0.011(2) 1. 0
Se2 Se2- 8 k 0.25 0.25 0.3375(7) 0.012(2) 1. 0
#End of TTdata_24386-ICSD