
#(C) 2017 by FIZ Karlsruhe - Leibniz Institute for Information Infrastructure.  All rights reserved.
data_245004-ICSD
_database_code_ICSD 245004
_audit_creation_date 2007-04-01
_chemical_name_systematic 'Hexascandium rhenium dodecaoxide'
_chemical_formula_structural 'Sc6 Re O12'
_chemical_formula_sum 'O12 Re1 Sc6'
_chemical_name_structure_type Pr7O12
_exptl_crystal_density_diffrn 5.
_publ_section_title

;
Synthesis, crystal structure and magnetic properties of new indium rhenium and
scandium rhenium oxides, In6 Re O12 and Sc6 Re O12
;
loop_
_citation_id
_citation_journal_full
_citation_year
_citation_journal_volume
_citation_page_first
_citation_page_last
_citation_journal_id_ASTM
primary 'Journal of Solid State Chemistry' 2006 179 3672 3680 JSSCBI
loop_
_publ_author_name
'Mikhailova, D.'
'Ehrenberg, H.'
'Fuess, H.'
_cell_length_a 9.248(2)
_cell_length_b 9.248(2)
_cell_length_c 8.720(2)
_cell_angle_alpha 90.
_cell_angle_beta 90.
_cell_angle_gamma 120.
_cell_volume 645.87
_cell_formula_units_Z 3
_symmetry_space_group_name_H-M 'R -3 H'
_symmetry_Int_Tables_number 148
_refine_ls_R_factor_all 0.0595
loop_
_symmetry_equiv_pos_site_id
_symmetry_equiv_pos_as_xyz
1 'x-y, x, -z'
2 'y, -x+y, -z'
3 '-x, -y, -z'
4 '-x+y, -x, z'
5 '-y, x-y, z'
6 'x, y, z'
7 'x-y+2/3, x+1/3, -z+1/3'
8 'y+2/3, -x+y+1/3, -z+1/3'
9 '-x+2/3, -y+1/3, -z+1/3'
10 '-x+y+2/3, -x+1/3, z+1/3'
11 '-y+2/3, x-y+1/3, z+1/3'
12 'x+2/3, y+1/3, z+1/3'
13 'x-y+1/3, x+2/3, -z+2/3'
14 'y+1/3, -x+y+2/3, -z+2/3'
15 '-x+1/3, -y+2/3, -z+2/3'
16 '-x+y+1/3, -x+2/3, z+2/3'
17 '-y+1/3, x-y+2/3, z+2/3'
18 'x+1/3, y+2/3, z+2/3'
loop_
_atom_type_symbol
_atom_type_oxidation_number
Re6+ 6
Sc3+ 3
O2- -2
loop_
_atom_site_label
_atom_site_type_symbol
_atom_site_symmetry_multiplicity
_atom_site_Wyckoff_symbol
_atom_site_fract_x
_atom_site_fract_y
_atom_site_fract_z
_atom_site_B_iso_or_equiv
_atom_site_occupancy
_atom_site_attached_hydrogens
Re1 Re6+ 3 a 0 0 0 . 1. 0
Sc1 Sc3+ 18 f 0.2495(2) 0.0338(2) 0.3592(3) . 1. 0
O1 O2- 18 f 0.1868(8) 0.0277(8) 0.1204(9) . 1. 0
O2 O2- 18 f 0.2173(7) 0.0235(7) 0.6065(9) . 1. 0
loop_
_atom_site_aniso_label
_atom_site_aniso_type_symbol
_atom_site_aniso_U_11
_atom_site_aniso_U_22
_atom_site_aniso_U_33
_atom_site_aniso_U_12
_atom_site_aniso_U_13
_atom_site_aniso_U_23
Re1 Re6+ 0.0033(3) 0.0033(3) 0.0088(5) 0.00167(16) 0. 0.
Sc1 Sc3+ 0.0046(8) 0.0054(8) 0.0083(9) 0.0033(6) -0.0005(6) -0.0013(6)
O1 O2- 0.008(3) 0.012(3) 0.014(4) 0.004(2) -0.004(3) -0.002(3)
O2 O2- 0.007(3) 0.003(2) 0.007(4) 0.001(2) 0.007(3) 0.002(3)
#End of TTdata_245004-ICSD