
#(C) 2017 by FIZ Karlsruhe - Leibniz Institute for Information Infrastructure.  All rights reserved.
data_24513-ICSD
_database_code_ICSD 24513
_audit_creation_date 1980-01-01
_audit_update_record 2002-04-01
_chemical_name_systematic 'Yttrium arsenate(V)'
_chemical_formula_structural 'Y (As O4)'
_chemical_formula_sum 'As1 O4 Y1'
_chemical_name_structure_type Zircon-ZrSiO4
_chemical_name_mineral Chernovite-(Y)
_exptl_crystal_density_diffrn 5.05
_publ_section_title

;
La struttura cristallina di alcuni fosfati ed arseniati di metalli trivalenti.
- II. Arseniato e fosfato di ittrio
;
loop_
_citation_id
_citation_journal_full
_citation_year
_citation_journal_volume
_citation_page_first
_citation_page_last
_citation_journal_id_ASTM
primary 'Gazzetta Chimica Italiana' 1934 64 662 674 GCITA9
loop_
_publ_author_name
'Strada, M.'
'Schwendimann, G.'
_cell_length_a 6.904
_cell_length_b 6.904
_cell_length_c 6.282
_cell_angle_alpha 90.
_cell_angle_beta 90.
_cell_angle_gamma 90.
_cell_volume 299.43
_cell_formula_units_Z 4
_symmetry_space_group_name_H-M 'I 41/a m d S'
_symmetry_Int_Tables_number 141
loop_
_symmetry_equiv_pos_site_id
_symmetry_equiv_pos_as_xyz
1 'y, -x+1/2, z+1/4'
2 '-y, x+1/2, z+1/4'
3 'y, -x, -z'
4 '-y, x, -z'
5 '-y, -x+1/2, z+1/4'
6 'y, x+1/2, z+1/4'
7 '-y, -x, -z'
8 'y, x, -z'
9 'x, -y+1/2, -z+1/4'
10 '-x, y+1/2, -z+1/4'
11 'x, -y, z'
12 '-x, y, z'
13 '-x, -y+1/2, -z+1/4'
14 'x, y+1/2, -z+1/4'
15 '-x, -y, z'
16 'x, y, z'
17 'y+1/2, -x, z+3/4'
18 '-y+1/2, x, z+3/4'
19 'y+1/2, -x+1/2, -z+1/2'
20 '-y+1/2, x+1/2, -z+1/2'
21 '-y+1/2, -x, z+3/4'
22 'y+1/2, x, z+3/4'
23 '-y+1/2, -x+1/2, -z+1/2'
24 'y+1/2, x+1/2, -z+1/2'
25 'x+1/2, -y, -z+3/4'
26 '-x+1/2, y, -z+3/4'
27 'x+1/2, -y+1/2, z+1/2'
28 '-x+1/2, y+1/2, z+1/2'
29 '-x+1/2, -y, -z+3/4'
30 'x+1/2, y, -z+3/4'
31 '-x+1/2, -y+1/2, z+1/2'
32 'x+1/2, y+1/2, z+1/2'
loop_
_atom_type_symbol
_atom_type_oxidation_number
Y3+ 3
As5+ 5
O2- -2
loop_
_atom_site_label
_atom_site_type_symbol
_atom_site_symmetry_multiplicity
_atom_site_Wyckoff_symbol
_atom_site_fract_x
_atom_site_fract_y
_atom_site_fract_z
_atom_site_B_iso_or_equiv
_atom_site_occupancy
_atom_site_attached_hydrogens
Y1 Y3+ 4 a 0 0 0 . 1. 0
As1 As5+ 4 b 0 0 0.5 . 1. 0
O1 O2- 16 h 0 0.176 0.301 . 1. 0
#End of TTdata_24513-ICSD