
#(C) 2017 by FIZ Karlsruhe - Leibniz Institute for Information Infrastructure.  All rights reserved.
data_245208-ICSD
_database_code_ICSD 245208
_audit_creation_date 2007-08-01
_audit_update_record 2008-08-01
_chemical_name_systematic 'Copper magnesium yttrium (9/2/1)'
_chemical_formula_structural 'Cu9 Mg2 Y'
_chemical_formula_sum 'Cu9 Mg2 Y1'
_chemical_name_structure_type CeNi3
_exptl_crystal_density_diffrn 6.7
_publ_section_title

;
Rare earth-copper-magnesium compounds RE Cu9 Mg2 (RE= Y, La-Nd, Sm-Ho, Yb)
with ordered CeNi3-type structure
;
loop_
_citation_id
_citation_journal_full
_citation_year
_citation_journal_volume
_citation_page_first
_citation_page_last
_citation_journal_id_ASTM
primary 'Journal of Solid State Chemistry' 2006 179 3073 3081 JSSCBI
loop_
_publ_author_name
'Solokha, P.'
'Pavlyuk, V.'
'Saccone, A.'
'de Negri, S.'
'Prochwicz, W.'
'Marciniak, B.'
'Rozycka-Sokolowska, E.'
_cell_length_a 5.0044(2)
_cell_length_b 5.0044(2)
_cell_length_c 16.2031(9)
_cell_angle_alpha 90.
_cell_angle_beta 90.
_cell_angle_gamma 120.
_cell_volume 351.43
_cell_formula_units_Z 2
_symmetry_space_group_name_H-M 'P 63/m m c'
_symmetry_Int_Tables_number 194
_refine_ls_R_factor_all 0.05
loop_
_symmetry_equiv_pos_site_id
_symmetry_equiv_pos_as_xyz
1 'x, x-y, -z+1/2'
2 '-x+y, y, -z+1/2'
3 '-y, -x, -z+1/2'
4 '-x+y, -x, -z+1/2'
5 '-y, x-y, -z+1/2'
6 'x, y, -z+1/2'
7 '-x, -x+y, z+1/2'
8 'x-y, -y, z+1/2'
9 'y, x, z+1/2'
10 'x-y, x, z+1/2'
11 'y, -x+y, z+1/2'
12 '-x, -y, z+1/2'
13 '-x, -x+y, -z'
14 'x-y, -y, -z'
15 'y, x, -z'
16 'x-y, x, -z'
17 'y, -x+y, -z'
18 '-x, -y, -z'
19 'x, x-y, z'
20 '-x+y, y, z'
21 '-y, -x, z'
22 '-x+y, -x, z'
23 '-y, x-y, z'
24 'x, y, z'
loop_
_atom_type_symbol
_atom_type_oxidation_number
Cu0+ 0
Y0+ 0
Mg0+ 0
Cu0+ 0
loop_
_atom_site_label
_atom_site_type_symbol
_atom_site_symmetry_multiplicity
_atom_site_Wyckoff_symbol
_atom_site_fract_x
_atom_site_fract_y
_atom_site_fract_z
_atom_site_B_iso_or_equiv
_atom_site_occupancy
_atom_site_attached_hydrogens
Cu1 Cu0+ 2 a 0 0 0 . 1. 0
Cu2 Cu0+ 2 b 0 0 0.25 . 1. 0
Cu3 Cu0+ 2 c 0.3333 0.6667 0.25 . 1. 0
Y1 Y0+ 2 d 0.3333 0.6667 0.75 . 1. 0
Mg1 Mg0+ 4 f 0.3333 0.6667 0.5290(4) . 1. 0
Cu4 Cu0+ 12 k 0.1660(3) 0.3320(6) 0.1220(1) . 1. 0
#End of TTdata_245208-ICSD