
data_245309-ICSD
_database_code_ICSD 245309
_audit_creation_date 2008-02-01
_chemical_name_systematic 'Calcium zinc oxide sulfide'
_chemical_formula_structural 'Ca Zn O S'
_chemical_formula_sum 'Ca1 O1 S1 Zn1'
_chemical_name_structure_type SiC(4H)
_exptl_crystal_density_diffrn 3.66
_cell_length_a 3.75726(3)
_cell_length_b 3.75726(3)
_cell_length_c 11.4013(1)
_cell_angle_alpha 90.
_cell_angle_beta 90.
_cell_angle_gamma 120.
_cell_volume 139.39
_cell_formula_units_Z 2
_symmetry_space_group_name_H-M 'P 63 m c'
_symmetry_Int_Tables_number 186
_refine_ls_R_factor_all 0.0838
loop_
_symmetry_equiv_pos_site_id
_symmetry_equiv_pos_as_xyz
1 '-x, -x+y, z+1/2'
2 'x-y, -y, z+1/2'
3 'y, x, z+1/2'
4 'x-y, x, z+1/2'
5 'y, -x+y, z+1/2'
6 '-x, -y, z+1/2'
7 'x, x-y, z'
8 '-x+y, y, z'
9 '-y, -x, z'
10 '-x+y, -x, z'
11 '-y, x-y, z'
12 'x, y, z'
loop_
_atom_type_symbol
_atom_type_oxidation_number
Zn2+ 2
Ca2+ 2
S2- -2
O2- -2
loop_
_atom_site_label
_atom_site_type_symbol
_atom_site_symmetry_multiplicity
_atom_site_Wyckoff_symbol
_atom_site_fract_x
_atom_site_fract_y
_atom_site_fract_z
_atom_site_B_iso_or_equiv
_atom_site_occupancy
_atom_site_attached_hydrogens
Zn1 Zn2+ 2 a 0 0 0 0.0096(2) 1. 0
Ca1 Ca2+ 2 b 0.3333 0.6667 0.27021(8) 0.0082(2) 1. 0
S1 S2- 2 b 0.6667 0.3333 0.0841(1) 0.0065(3) 1. 0
O1 O2- 2 a 0 0 0.33338(4) 0.0067(2) 1. 0
