
#(C) 2017 by FIZ Karlsruhe - Leibniz Institute for Information Infrastructure.  All rights reserved.
data_245796-ICSD
_database_code_ICSD 245796
_audit_creation_date 2008-08-01
_audit_update_record 2013-02-01
_chemical_name_systematic 'Scandium phyllo-rheno(IV)rhenate(V)'
_chemical_formula_structural 'Sc (Re2 O6)'
_chemical_formula_sum 'O6 Re2 Sc1'
_exptl_crystal_density_diffrn 8.49
_cell_measurement_temperature 293.
_publ_section_title

;
Sc Re2 O6: A new ternary oxide with metallic Re-Re-bonds and a ferromagnetic
component above room temperature
;
loop_
_citation_id
_citation_journal_full
_citation_year
_citation_journal_volume
_citation_page_first
_citation_page_last
_citation_journal_id_ASTM
primary 'Journal of Solid State Chemistry' 2008 181 190 198 JSSCBI
loop_
_publ_author_name
'Mikhailova, D.'
'Ehrenberg, H.'
'Miehe, G.'
'Trots, D.M.'
'Hess, C.'
'Schneider, R.'
'Fuess, H.'
_cell_length_a 5.6176(9)
_cell_length_b 4.7970(9)
_cell_length_c 7.5143(16)
_cell_angle_alpha 90
_cell_angle_beta 97.49(2)
_cell_angle_gamma 90
_cell_volume 200.76
_cell_formula_units_Z 2
_symmetry_space_group_name_H-M 'P 1 21/a 1'
_symmetry_Int_Tables_number 14
_refine_ls_R_factor_all 0.0529
loop_
_symmetry_equiv_pos_site_id
_symmetry_equiv_pos_as_xyz
1 'x+1/2, -y+1/2, z'
2 '-x, -y, -z'
3 '-x+1/2, y+1/2, -z'
4 'x, y, z'
loop_
_atom_type_symbol
_atom_type_oxidation_number
Sc3+ 3
Re4+ 4.5
O2- -2
loop_
_atom_site_label
_atom_site_type_symbol
_atom_site_symmetry_multiplicity
_atom_site_Wyckoff_symbol
_atom_site_fract_x
_atom_site_fract_y
_atom_site_fract_z
_atom_site_B_iso_or_equiv
_atom_site_occupancy
_atom_site_attached_hydrogens
Sc1 Sc3+ 2 b 0 0.5 0.5 0.001(2) 1. 0
Re1 Re4+ 4 e 0.1283(3) 0.0087(2) 0.1507(2) 0.001(1) 1. 0
O1 O2- 4 e 0.168(4) 0.826(4) 0.378(3) 0.010(5) 1. 0
O2 O2- 4 e 0.4180(4) 0.216(4) 0.247(3) 0.010(4) 1. 0
O3 O2- 4 e 0.3380(4) -0.270(5) 0.067(3) 0.012(5) 1. 0
#End of TTdata_245796-ICSD