
#(C) 2017 by FIZ Karlsruhe - Leibniz Institute for Information Infrastructure.  All rights reserved.
data_245804-ICSD
_database_code_ICSD 245804
_audit_creation_date 2008-08-01
_chemical_name_systematic 'Strontium molybdate(VI) - high pressure phase'
_chemical_formula_structural 'Sr (Mo O4)'
_chemical_formula_sum 'Mo1 O4 Sr1'
_chemical_name_structure_type YNbO4(mS24)
_exptl_crystal_density_diffrn 5.38
_cell_measurement_pressure 13100000.
_publ_section_title

;
High-pressure X-ray diffraction of Sr Mo O4 and pressure-induced structural
changes
;
loop_
_citation_id
_citation_journal_full
_citation_year
_citation_journal_volume
_citation_page_first
_citation_page_last
_citation_journal_id_ASTM
primary 'Journal of Solid State Chemistry' 2008 181 355 364 JSSCBI
loop_
_publ_author_name
'Errandonea, D.'
'Kumar, R.S.'
'Ma Xinghua'
'Tu Chaoyang'
_cell_length_a 5.256(5)
_cell_length_b 11.191(9)
_cell_length_c 5.195(5)
_cell_angle_alpha 90.
_cell_angle_beta 90.9(1)
_cell_angle_gamma 90.
_cell_volume 305.53
_cell_formula_units_Z 4
_symmetry_space_group_name_H-M 'I 1 2/a 1'
_symmetry_Int_Tables_number 15
loop_
_symmetry_equiv_pos_site_id
_symmetry_equiv_pos_as_xyz
1 'x+1/2, -y, z'
2 '-x, -y, -z'
3 '-x+1/2, y, -z'
4 'x, y, z'
5 'x, -y+1/2, z+1/2'
6 '-x+1/2, -y+1/2, -z+1/2'
7 '-x, y+1/2, -z+1/2'
8 'x+1/2, y+1/2, z+1/2'
loop_
_atom_type_symbol
_atom_type_oxidation_number
Sr2+ 2
Mo6+ 6
O2- -2
loop_
_atom_site_label
_atom_site_type_symbol
_atom_site_symmetry_multiplicity
_atom_site_Wyckoff_symbol
_atom_site_fract_x
_atom_site_fract_y
_atom_site_fract_z
_atom_site_B_iso_or_equiv
_atom_site_occupancy
_atom_site_attached_hydrogens
Sr1 Sr2+ 4 e 0.25 0.615(2) 0 . 1. 0
Mo1 Mo6+ 4 e 0.25 0.123(1) 0 . 1. 0
O1 O2- 8 f 0.910(6) 0.951(6) 0.248(5) . 1. 0
O2 O2- 8 f 0.492(6) 0.239(5) 0.797(6) . 1. 0
#End of TTdata_245804-ICSD