
#(C) 2017 by FIZ Karlsruhe - Leibniz Institute for Information Infrastructure.  All rights reserved.
data_24586-ICSD
_database_code_ICSD 24586
_audit_creation_date 1980-01-01
_audit_update_record 2012-08-01
_chemical_name_systematic 'Copper sulfide'
_chemical_formula_structural 'Cu S'
_chemical_formula_sum 'Cu1 S1'
_chemical_name_structure_type CuSe
_chemical_name_mineral Covellite
_exptl_crystal_density_diffrn 4.63
_publ_section_title 'The Crystal Structure of Covellite'
loop_
_citation_id
_citation_journal_full
_citation_year
_citation_journal_volume
_citation_page_first
_citation_page_last
_citation_journal_id_ASTM
primary 'American Journal of Science, Serie 5(1,1921-1938)' 1929 17 489 503
AJSC5L
loop_
_publ_author_name
'Roberts, H.S.'
'Ksanda, C.J.'
_cell_length_a 3.802
_cell_length_b 3.802
_cell_length_c 16.42999
_cell_angle_alpha 90.
_cell_angle_beta 90.
_cell_angle_gamma 120.
_cell_volume 205.68
_cell_formula_units_Z 6
_symmetry_space_group_name_H-M 'P 63/m m c'
_symmetry_Int_Tables_number 194
loop_
_symmetry_equiv_pos_site_id
_symmetry_equiv_pos_as_xyz
1 'x, x-y, -z+1/2'
2 '-x+y, y, -z+1/2'
3 '-y, -x, -z+1/2'
4 '-x+y, -x, -z+1/2'
5 '-y, x-y, -z+1/2'
6 'x, y, -z+1/2'
7 '-x, -x+y, z+1/2'
8 'x-y, -y, z+1/2'
9 'y, x, z+1/2'
10 'x-y, x, z+1/2'
11 'y, -x+y, z+1/2'
12 '-x, -y, z+1/2'
13 '-x, -x+y, -z'
14 'x-y, -y, -z'
15 'y, x, -z'
16 'x-y, x, -z'
17 'y, -x+y, -z'
18 '-x, -y, -z'
19 'x, x-y, z'
20 '-x+y, y, z'
21 '-y, -x, z'
22 '-x+y, -x, z'
23 '-y, x-y, z'
24 'x, y, z'
loop_
_atom_type_symbol
_atom_type_oxidation_number
Cu2+ 2
S2- -2
loop_
_atom_site_label
_atom_site_type_symbol
_atom_site_symmetry_multiplicity
_atom_site_Wyckoff_symbol
_atom_site_fract_x
_atom_site_fract_y
_atom_site_fract_z
_atom_site_B_iso_or_equiv
_atom_site_occupancy
_atom_site_attached_hydrogens
Cu1 Cu2+ 2 d 0.3333 0.6667 0.75 . 1. 0
Cu2 Cu2+ 4 f 0.3333 0.6667 0.093 . 1. 0
S1 S2- 4 e 0 0 0.126 . 1. 0
S2 S2- 2 a 0 0 0 . 1. 0
#End of TTdata_24586-ICSD