
data_2459-ICSD
_database_code_ICSD 2459
_audit_creation_date 1980-01-01
_audit_update_record 2012-08-01
_chemical_name_systematic 'Zinc chloride'
_chemical_formula_structural 'Zn Cl2'
_chemical_formula_sum 'Cl2 Zn1'
_chemical_name_structure_type ZnCl2
_exptl_crystal_density_diffrn 2.98
_cell_length_a 6.443(2)
_cell_length_b 7.693(4)
_cell_length_c 6.125(4)
_cell_angle_alpha 90.
_cell_angle_beta 90.
_cell_angle_gamma 90.
_cell_volume 303.59
_cell_formula_units_Z 4
_symmetry_space_group_name_H-M 'P n a 21'
_symmetry_Int_Tables_number 33
_refine_ls_R_factor_all 0.079
loop_
_symmetry_equiv_pos_site_id
_symmetry_equiv_pos_as_xyz
1 'x+1/2, -y+1/2, z'
2 '-x+1/2, y+1/2, z+1/2'
3 '-x, -y, z+1/2'
4 'x, y, z'
loop_
_atom_type_symbol
_atom_type_oxidation_number
Zn2+ 2
Cl1- -1
loop_
_atom_site_label
_atom_site_type_symbol
_atom_site_symmetry_multiplicity
_atom_site_Wyckoff_symbol
_atom_site_fract_x
_atom_site_fract_y
_atom_site_fract_z
_atom_site_B_iso_or_equiv
_atom_site_occupancy
_atom_site_attached_hydrogens
Zn1 Zn2+ 4 a 0.0818(3) 0.1251(2) 0.375 . 1. 0
Cl1 Cl1- 4 a 0.0702(6) 0.1223(11) 0.0041(5) . 1. 0
Cl2 Cl1- 4 a 0.0841(6) 0.6332(11) -.0062(6) . 1. 0
loop_
_atom_site_aniso_label
_atom_site_aniso_type_symbol
_atom_site_aniso_beta_11
_atom_site_aniso_beta_22
_atom_site_aniso_beta_33
_atom_site_aniso_beta_12
_atom_site_aniso_beta_13
_atom_site_aniso_beta_23
Zn1 Zn2+ 0.0116(3) 0.0086(3) 0.0136(4) -.0013(3) 0.0015(11) 0.0005(12)
Cl1 Cl1- 0.0209(9) 0.0110(6) 0.0077(7) -.0018(16) -.0004(13) -.0020(15)
Cl2 Cl1- 0.0107(6) 0.0096(6) 0.0195(8) -.0004(14) 0.0030(16) 0.0007(14)
