
#(C) 2017 by FIZ Karlsruhe - Leibniz Institute for Information Infrastructure.  All rights reserved.
data_246280-ICSD
_database_code_ICSD 246280
_audit_creation_date 2009-08-01
_chemical_name_systematic 'Tribarium calcium diiridate(V) - HP'
_chemical_formula_structural 'Ba3 Ca (Ir2 O9)'
_chemical_formula_sum 'Ba3 Ca1 Ir2 O9'
_chemical_name_structure_type Ba3SrTa2O9
_exptl_crystal_density_diffrn 7.74
_cell_measurement_temperature 293.
_publ_section_title

;
Structural and physical properties of 1:2 B-site-ordered perovskite Ba3 Ca Ir2
O9
;
loop_
_citation_id
_citation_journal_full
_citation_year
_citation_journal_volume
_citation_page_first
_citation_page_last
_citation_journal_id_ASTM
primary 'Journal of Solid State Chemistry' 2009 182 327 330 JSSCBI
loop_
_publ_author_name
'Zhao Jinggeng'
'Yang, L.-X.'
'Yu, Y.'
'Li, F.Y.'
'Yu, R.C.'
'Jin, C.-Q.'
_cell_length_a 5.8296(1)
_cell_length_b 5.8296(1)
_cell_length_c 7.1659(2)
_cell_angle_alpha 90.
_cell_angle_beta 90.
_cell_angle_gamma 120.
_cell_volume 210.9
_cell_formula_units_Z 1
_symmetry_space_group_name_H-M 'P -3 m 1'
_symmetry_Int_Tables_number 164
_refine_ls_R_factor_all 0.0749
loop_
_symmetry_equiv_pos_site_id
_symmetry_equiv_pos_as_xyz
1 'x-y, -y, -z'
2 '-x, -x+y, -z'
3 'y, x, -z'
4 'x-y, x, -z'
5 'y, -x+y, -z'
6 '-x, -y, -z'
7 '-x+y, y, z'
8 'x, x-y, z'
9 '-y, -x, z'
10 '-x+y, -x, z'
11 '-y, x-y, z'
12 'x, y, z'
loop_
_atom_type_symbol
_atom_type_oxidation_number
Ba2+ 2
Ca2+ 2
Ir5+ 5
O2- -2
loop_
_atom_site_label
_atom_site_type_symbol
_atom_site_symmetry_multiplicity
_atom_site_Wyckoff_symbol
_atom_site_fract_x
_atom_site_fract_y
_atom_site_fract_z
_atom_site_B_iso_or_equiv
_atom_site_occupancy
_atom_site_attached_hydrogens
Ba1 Ba2+ 1 a 0 0 0 0.88(6) 1. 0
Ba2 Ba2+ 2 d 0.3333 0.6667 0.6659(4) 0.48(5) 1. 0
Ca1 Ca2+ 1 b 0 0 0.5 2.1(2) 1. 0
Ir1 Ir5+ 2 d 0.3333 0.6667 0.1623(3) 0.51(4) 1. 0
O1 O2- 3 e 0.5 0 0 1.6(3) 1. 0
O2 O2- 6 i 0.179(1) 0.821(1) 0.324(1) 1.8(2) 1. 0
#End of TTdata_246280-ICSD