
#(C) 2017 by FIZ Karlsruhe - Leibniz Institute for Information Infrastructure.  All rights reserved.
data_246386-ICSD
_database_code_ICSD 246386
_audit_creation_date 2009-08-01
_chemical_name_systematic 'Lanthanum magnesium silicide (1/1/2)'
_chemical_formula_structural 'La Mg Si2'
_chemical_formula_sum 'La1 Mg1 Si2'
_chemical_name_structure_type CeMgSi2
_exptl_crystal_density_diffrn 4.24
_cell_measurement_temperature 298.
_publ_section_title

;
Synthesis and crystal structure of R Mg Si2 compounds (R = La, Ce, Pr, Nd), a
particular example of linear intergrowth
;
loop_
_citation_id
_citation_journal_full
_citation_year
_citation_journal_volume
_citation_page_first
_citation_page_last
_citation_journal_id_ASTM
primary 'Journal of Solid State Chemistry' 2009 182 716 724 JSSCBI
loop_
_publ_author_name
'Wrubl, F.'
'Pani, M.'
'Manfrinetti, P.'
'Rogl, P.'
_cell_length_a 4.3143(4)
_cell_length_b 4.3143(4)
_cell_length_c 36.927(3)
_cell_angle_alpha 90.
_cell_angle_beta 90.
_cell_angle_gamma 90.
_cell_volume 687.33
_cell_formula_units_Z 8
_symmetry_space_group_name_H-M 'I 41/a m d Z'
_symmetry_Int_Tables_number 141
_refine_ls_R_factor_all 0.0822
loop_
_symmetry_equiv_pos_site_id
_symmetry_equiv_pos_as_xyz
1 'y+1/4, x+3/4, -z+1/4'
2 'y+1/4, -x+3/4, -z+1/4'
3 'x, y+1/2, -z'
4 'x, -y, -z'
5 '-y+3/4, x+3/4, -z+1/4'
6 '-y+3/4, -x+3/4, -z+1/4'
7 '-x, y+1/2, -z'
8 '-x, -y, -z'
9 '-y+3/4, -x+1/4, z+3/4'
10 '-y+3/4, x+1/4, z+3/4'
11 '-x, -y+1/2, z'
12 '-x, y, z'
13 'y+1/4, -x+1/4, z+3/4'
14 'y+1/4, x+1/4, z+3/4'
15 'x, -y+1/2, z'
16 'x, y, z'
17 'y+3/4, x+1/4, -z+3/4'
18 'y+3/4, -x+1/4, -z+3/4'
19 'x+1/2, y, -z+1/2'
20 'x+1/2, -y+1/2, -z+1/2'
21 '-y+1/4, x+1/4, -z+3/4'
22 '-y+1/4, -x+1/4, -z+3/4'
23 '-x+1/2, y, -z+1/2'
24 '-x+1/2, -y+1/2, -z+1/2'
25 '-y+1/4, -x+3/4, z+1/4'
26 '-y+1/4, x+3/4, z+1/4'
27 '-x+1/2, -y, z+1/2'
28 '-x+1/2, y+1/2, z+1/2'
29 'y+3/4, -x+3/4, z+1/4'
30 'y+3/4, x+3/4, z+1/4'
31 'x+1/2, -y, z+1/2'
32 'x+1/2, y+1/2, z+1/2'
loop_
_atom_type_symbol
_atom_type_oxidation_number
La0+ 0
Mg0+ 0
Si0+ 0
loop_
_atom_site_label
_atom_site_type_symbol
_atom_site_symmetry_multiplicity
_atom_site_Wyckoff_symbol
_atom_site_fract_x
_atom_site_fract_y
_atom_site_fract_z
_atom_site_B_iso_or_equiv
_atom_site_occupancy
_atom_site_attached_hydrogens
La1 La0+ 8 e 0 0.25 0.79800(2) 0.0177(2) 1. 0
Mg1 Mg0+ 8 e 0 0.25 0.12512(6) 0.0206(8) 1. 0
Si1 Si0+ 8 e 0 0.25 0.26424(6) 0.0216(8) 1. 0
Si2 Si0+ 8 e 0 0.25 0.32725(6) 0.0195(7) 1. 0
#End of TTdata_246386-ICSD