
#(C) 2017 by FIZ Karlsruhe - Leibniz Institute for Information Infrastructure.  All rights reserved.
data_246415-ICSD
_database_code_ICSD 246415
_audit_creation_date 2009-08-01
_chemical_name_systematic 'Lanthanum palladium germanide (3/4/4)'
_chemical_formula_structural 'La3 Pd4 Ge4'
_chemical_formula_sum 'Ge4 La3 Pd4'
_chemical_name_structure_type Ni4U3Si4
_exptl_crystal_density_diffrn 8.13
_publ_section_title 'Superconductivity in the ternary germanide La3 Pd4 Ge4'
loop_
_citation_id
_citation_journal_full
_citation_year
_citation_journal_volume
_citation_page_first
_citation_page_last
_citation_journal_id_ASTM
primary 'Physical Review, Serie 3. B - Condensed Matter (18,1978-)' 2005 72
214520-1 214520-6 PRBMDO
loop_
_publ_author_name
'Fujii, H.'
'Mochiku, T.'
'Takeya, H.'
'Sato, A.'
_cell_length_a 4.2200(3)
_cell_length_b 4.3850(3)
_cell_length_c 25.003(2)
_cell_angle_alpha 90.
_cell_angle_beta 90.
_cell_angle_gamma 90.
_cell_volume 462.67
_cell_formula_units_Z 2
_symmetry_space_group_name_H-M 'I m m m'
_symmetry_Int_Tables_number 71
_refine_ls_R_factor_all 0.0604
loop_
_symmetry_equiv_pos_site_id
_symmetry_equiv_pos_as_xyz
1 'x, y, -z'
2 'x, -y, z'
3 '-x, y, z'
4 '-x, -y, -z'
5 '-x, -y, z'
6 '-x, y, -z'
7 'x, -y, -z'
8 'x, y, z'
9 'x+1/2, y+1/2, -z+1/2'
10 'x+1/2, -y+1/2, z+1/2'
11 '-x+1/2, y+1/2, z+1/2'
12 '-x+1/2, -y+1/2, -z+1/2'
13 '-x+1/2, -y+1/2, z+1/2'
14 '-x+1/2, y+1/2, -z+1/2'
15 'x+1/2, -y+1/2, -z+1/2'
16 'x+1/2, y+1/2, z+1/2'
loop_
_atom_type_symbol
_atom_type_oxidation_number
La0+ 0
Pd0+ 0
Ge0+ 0
loop_
_atom_site_label
_atom_site_type_symbol
_atom_site_symmetry_multiplicity
_atom_site_Wyckoff_symbol
_atom_site_fract_x
_atom_site_fract_y
_atom_site_fract_z
_atom_site_B_iso_or_equiv
_atom_site_occupancy
_atom_site_attached_hydrogens
La1 La0+ 2 a 0 0 0 1. 1. 0
La2 La0+ 4 j 0.5 0 0.3513(2) 1. 1. 0
Pd1 Pd0+ 4 j 0.5 0 0.0979(2) 1. 1. 0
Pd2 Pd0+ 4 i 0 0 0.2501(2) 1. 1. 0
Ge1 Ge0+ 4 j 0.5 0 0.1972(2) 1. 1. 0
Ge2 Ge0+ 4 i 0 0 0.4503(3) 1. 1. 0
#End of TTdata_246415-ICSD