
#(C) 2017 by FIZ Karlsruhe - Leibniz Institute for Information Infrastructure.  All rights reserved.
data_246547-ICSD
_database_code_ICSD 246547
_audit_creation_date 2009-08-01
_chemical_name_systematic 'Iridium manganese silicide (1/1/1)'
_chemical_formula_structural 'Ir Mn Si'
_chemical_formula_sum 'Ir1 Mn1 Si1'
_chemical_name_structure_type TiNiSi-MgSrSi
_exptl_crystal_density_diffrn 10.61
_cell_measurement_temperature 523.
_publ_section_title 'Cycloidal magnetic order in the compound Ir Mn Si'
loop_
_citation_id
_citation_journal_full
_citation_year
_citation_journal_volume
_citation_page_first
_citation_page_last
_citation_journal_id_ASTM
primary 'Physical Review, Serie 3. B - Condensed Matter (18,1978-)' 2005 71
174420-1 174420-7 PRBMDO
loop_
_publ_author_name
'Eriksson, T.'
'Bergqvist, L.'
'Burkert, T.'
'Felton, S.'
'Tellgren, R.'
'Nordblad, P.'
'Eriksson, O.'
'Andersson, Y.'
_cell_length_a 6.2778(6)
_cell_length_b 3.8636(4)
_cell_length_c 7.1329(6)
_cell_angle_alpha 90.
_cell_angle_beta 90.
_cell_angle_gamma 90.
_cell_volume 173.01
_cell_formula_units_Z 4
_symmetry_space_group_name_H-M 'P n m a'
_symmetry_Int_Tables_number 62
_refine_ls_R_factor_all 0.0479
loop_
_symmetry_equiv_pos_site_id
_symmetry_equiv_pos_as_xyz
1 'x+1/2, y, -z+1/2'
2 'x, -y+1/2, z'
3 '-x+1/2, y+1/2, z+1/2'
4 '-x, -y, -z'
5 '-x+1/2, -y, z+1/2'
6 '-x, y+1/2, -z'
7 'x+1/2, -y+1/2, -z+1/2'
8 'x, y, z'
loop_
_atom_type_symbol
_atom_type_oxidation_number
Ir0+ 0
Mn0+ 0
Si0+ 0
loop_
_atom_site_label
_atom_site_type_symbol
_atom_site_symmetry_multiplicity
_atom_site_Wyckoff_symbol
_atom_site_fract_x
_atom_site_fract_y
_atom_site_fract_z
_atom_site_B_iso_or_equiv
_atom_site_occupancy
_atom_site_attached_hydrogens
Ir1 Ir0+ 4 c 0.1598(4) 0.25 0.5602(4) 0.59(5) 1. 0
Mn1 Mn0+ 4 c 0.026(1) 0.25 0.173(1) 1.0(1) 1. 0
Si1 Si0+ 4 c 0.7818(9) 0.25 0.6296(9) 0.6(1) 1. 0
#End of TTdata_246547-ICSD