
#(C) 2017 by FIZ Karlsruhe - Leibniz Institute for Information Infrastructure.  All rights reserved.
data_246687-ICSD
_database_code_ICSD 246687
_audit_creation_date 2010-02-01
_chemical_name_systematic 'Copper(I) iodide - V'
_chemical_formula_structural 'Cu I'
_chemical_formula_sum 'Cu1 I1'
_chemical_name_structure_type FeSe
_exptl_crystal_density_diffrn 7.27
_cell_measurement_pressure 8800000.
_publ_section_title 'High-pressure phase of copper(I) iodide'
loop_
_citation_id
_citation_journal_full
_citation_year
_citation_journal_volume
_citation_page_first
_citation_page_last
_citation_journal_id_ASTM
primary 'Physical Review, Serie 3. B - Condensed Matter (18,1978-)' 1995 51
12022 12025 PRBMDO
loop_
_publ_author_name
'Hofmann, M.'
'Hull, S.'
'Keen, D.A.'
_cell_length_a 3.9598(2)
_cell_length_b 3.9598(2)
_cell_length_c 5.5459(5)
_cell_angle_alpha 90.
_cell_angle_beta 90.
_cell_angle_gamma 90.
_cell_volume 86.96
_cell_formula_units_Z 2
_symmetry_space_group_name_H-M 'P 4/n m m Z'
_symmetry_Int_Tables_number 129
loop_
_symmetry_equiv_pos_site_id
_symmetry_equiv_pos_as_xyz
1 'y+1/2, x+1/2, -z'
2 '-y, x+1/2, -z'
3 'y+1/2, -x, -z'
4 '-y, -x, -z'
5 'x+1/2, y+1/2, -z'
6 '-x, y+1/2, -z'
7 'x+1/2, -y, -z'
8 '-x, -y, -z'
9 '-y+1/2, -x+1/2, z'
10 'y, -x+1/2, z'
11 '-y+1/2, x, z'
12 'y, x, z'
13 '-x+1/2, -y+1/2, z'
14 'x, -y+1/2, z'
15 '-x+1/2, y, z'
16 'x, y, z'
loop_
_atom_type_symbol
_atom_type_oxidation_number
Cu1+ 1
I1- -1
loop_
_atom_site_label
_atom_site_type_symbol
_atom_site_symmetry_multiplicity
_atom_site_Wyckoff_symbol
_atom_site_fract_x
_atom_site_fract_y
_atom_site_fract_z
_atom_site_B_iso_or_equiv
_atom_site_occupancy
_atom_site_attached_hydrogens
Cu1 Cu1+ 2 a 0.75 0.25 0 2.27(9) 1. 0
I1 I1- 2 c 0.25 0.25 0.2993(3) 1.67(6) 1. 0
#End of TTdata_246687-ICSD