
#(C) 2017 by FIZ Karlsruhe - Leibniz Institute for Information Infrastructure.  All rights reserved.
data_246689-ICSD
_database_code_ICSD 246689
_audit_creation_date 2010-02-01
_chemical_name_systematic 'Copper(I) iodide - VIII'
_chemical_formula_structural 'Cu I'
_chemical_formula_sum 'Cu1 I1'
_exptl_crystal_density_diffrn 7.34
_cell_measurement_pressure 19200000.
_publ_section_title 'High-pressure phase of copper(I) iodide'
loop_
_citation_id
_citation_journal_full
_citation_year
_citation_journal_volume
_citation_page_first
_citation_page_last
_citation_journal_id_ASTM
primary 'Physical Review, Serie 3. B - Condensed Matter (18,1978-)' 1995 51
12022 12025 PRBMDO
loop_
_publ_author_name
'Hofmann, M.'
'Hull, S.'
'Keen, D.A.'
_cell_length_a 6.1154(17)
_cell_length_b 6.1154(17)
_cell_length_c 4.6087(13)
_cell_angle_alpha 90.
_cell_angle_beta 90.
_cell_angle_gamma 90.
_cell_volume 172.36
_cell_formula_units_Z 4
_symmetry_space_group_name_H-M 'C m c m'
_symmetry_Int_Tables_number 63
loop_
_symmetry_equiv_pos_site_id
_symmetry_equiv_pos_as_xyz
1 '-x, y, -z+1/2'
2 '-x, -y, z+1/2'
3 '-x, y, z'
4 '-x, -y, -z'
5 'x, -y, z+1/2'
6 'x, y, -z+1/2'
7 'x, -y, -z'
8 'x, y, z'
9 '-x+1/2, y+1/2, -z+1/2'
10 '-x+1/2, -y+1/2, z+1/2'
11 '-x+1/2, y+1/2, z'
12 '-x+1/2, -y+1/2, -z'
13 'x+1/2, -y+1/2, z+1/2'
14 'x+1/2, y+1/2, -z+1/2'
15 'x+1/2, -y+1/2, -z'
16 'x+1/2, y+1/2, z'
loop_
_atom_type_symbol
_atom_type_oxidation_number
Cu1+ 1
I1- -1
loop_
_atom_site_label
_atom_site_type_symbol
_atom_site_symmetry_multiplicity
_atom_site_Wyckoff_symbol
_atom_site_fract_x
_atom_site_fract_y
_atom_site_fract_z
_atom_site_B_iso_or_equiv
_atom_site_occupancy
_atom_site_attached_hydrogens
Cu1 Cu1+ 4 c 0 0.6015(8) 0.25 1.84(10) 1. 0
I1 I1- 4 c 0 0.1918(3) 0.25 1.71(7) 1. 0
#End of TTdata_246689-ICSD