
#(C) 2017 by FIZ Karlsruhe - Leibniz Institute for Information Infrastructure.  All rights reserved.
data_246807-ICSD
_database_code_ICSD 246807
_audit_creation_date 2010-02-01
_audit_update_record 2013-08-01
_chemical_name_systematic 'Lanthanum silicide (1/5) - alpha'
_chemical_formula_structural 'La Si5'
_chemical_formula_sum 'La1 Si5'
_chemical_name_structure_type LaSi5
_exptl_crystal_density_diffrn 3.9
_cell_measurement_temperature 293.
_publ_section_title

;
Phase diagram of the La-Si binary system under high pressure and the
structures of superconducting La Si5 and La Si10
;
loop_
_citation_id
_citation_journal_full
_citation_year
_citation_journal_volume
_citation_page_first
_citation_page_last
_citation_journal_id_ASTM
primary 'Journal of Solid State Chemistry' 2009 182 1991 2003 JSSCBI
loop_
_publ_author_name
'Yamanaka, S.'
'Izumi, S.'
'Maekawa, S.'
'Umemoto, K.'
_cell_length_a 15.11(3)
_cell_length_b 4.032(6)
_cell_length_c 8.263(13)
_cell_angle_alpha 90.
_cell_angle_beta 109.111(6)
_cell_angle_gamma 90
_cell_volume 475.67
_cell_formula_units_Z 4
_symmetry_space_group_name_H-M 'C 1 2/m 1'
_symmetry_Int_Tables_number 12
_refine_ls_R_factor_all 0.0709
loop_
_symmetry_equiv_pos_site_id
_symmetry_equiv_pos_as_xyz
1 '-x, y, -z'
2 '-x, -y, -z'
3 'x, -y, z'
4 'x, y, z'
5 '-x+1/2, y+1/2, -z'
6 '-x+1/2, -y+1/2, -z'
7 'x+1/2, -y+1/2, z'
8 'x+1/2, y+1/2, z'
loop_
_atom_type_symbol
_atom_type_oxidation_number
La0+ 0
Si0+ 0
loop_
_atom_site_label
_atom_site_type_symbol
_atom_site_symmetry_multiplicity
_atom_site_Wyckoff_symbol
_atom_site_fract_x
_atom_site_fract_y
_atom_site_fract_z
_atom_site_B_iso_or_equiv
_atom_site_occupancy
_atom_site_attached_hydrogens
La1 La0+ 4 i 0.43911(10) 0 -0.27774(18) 0.025(6) 1. 0
Si1 Si0+ 4 i 0.2308(4) 0 0.4142(8) 0.021(2) 1. 0
Si2 Si0+ 4 i 0.4256(4) 0.5 0.0248(9) 0.024(2) 1. 0
Si3 Si0+ 4 i 0.4353(5) 0.5 0.3777(10) 0.031(2) 1. 0
Si4 Si0+ 4 i 0.3487(4) 0 0.2907(9) 0.024(2) 1. 0
Si5 Si0+ 4 i 0.3253(4) 0 -0.0070(9) 0.024(2) 1. 0
loop_
_atom_site_aniso_label
_atom_site_aniso_type_symbol
_atom_site_aniso_U_11
_atom_site_aniso_U_22
_atom_site_aniso_U_33
_atom_site_aniso_U_12
_atom_site_aniso_U_13
_atom_site_aniso_U_23
La1 La0+ 0.0259(9) 0.0183(9) 0.0323(10) 0. 0.0109(6) 0.
Si1 Si0+ 0.020(3) 0.015(3) 0.033(3) 0. 0.015(3) 0.
Si2 Si0+ 0.022(3) 0.013(3) 0.038(4) 0. 0.011(3) 0.
Si3 Si0+ 0.029(3) 0.013(3) 0.053(5) 0. 0.016(3) 0.
Si4 Si0+ 0.026(3) 0.019(3) 0.030(3) 0. 0.014(3) 0.
Si5 Si0+ 0.023(3) 0.021(3) 0.032(4) 0. 0.016(3) 0.
#End of TTdata_246807-ICSD