
#(C) 2017 by FIZ Karlsruhe - Leibniz Institute for Information Infrastructure.  All rights reserved.
data_246906-ICSD
_database_code_ICSD 246906
_audit_creation_date 2010-02-01
_chemical_name_systematic 'Vanadium(II) bromide'
_chemical_formula_structural 'V Br2'
_chemical_formula_sum 'Br2 V1'
_chemical_name_structure_type CdI2
_exptl_crystal_density_diffrn 4.63
_cell_measurement_temperature 1.5
_publ_section_title

;
Study of frustration effects in two-dimensional triangular lattice
antiferromagnets - Neutron powder diffraction study of V X2, X = Cl, Br and I
;
loop_
_citation_id
_citation_journal_full
_citation_year
_citation_journal_volume
_citation_page_first
_citation_page_last
_citation_journal_id_ASTM
primary 'Journal of the Physical Society of Japan' 1983 52 1814 1824 JUPSAU
loop_
_publ_author_name
'Hirakawa, K.'
'Kadowaki, H.'
'Ubukoshi, K.'
_cell_length_a 3.751
_cell_length_b 3.751
_cell_length_c 6.206
_cell_angle_alpha 90.
_cell_angle_beta 90.
_cell_angle_gamma 120.
_cell_volume 75.62
_cell_formula_units_Z 1
_symmetry_space_group_name_H-M 'P -3 m 1'
_symmetry_Int_Tables_number 164
loop_
_symmetry_equiv_pos_site_id
_symmetry_equiv_pos_as_xyz
1 'x-y, -y, -z'
2 '-x, -x+y, -z'
3 'y, x, -z'
4 'x-y, x, -z'
5 'y, -x+y, -z'
6 '-x, -y, -z'
7 '-x+y, y, z'
8 'x, x-y, z'
9 '-y, -x, z'
10 '-x+y, -x, z'
11 '-y, x-y, z'
12 'x, y, z'
loop_
_atom_type_symbol
_atom_type_oxidation_number
V2+ 2
Br1- -1
loop_
_atom_site_label
_atom_site_type_symbol
_atom_site_symmetry_multiplicity
_atom_site_Wyckoff_symbol
_atom_site_fract_x
_atom_site_fract_y
_atom_site_fract_z
_atom_site_B_iso_or_equiv
_atom_site_occupancy
_atom_site_attached_hydrogens
V1 V2+ 1 a 0 0 0 0.26 1. 0
Br1 Br1- 2 d 0.3333 0.6667 0.25 0.26 1. 0
#End of TTdata_246906-ICSD