
#(C) 2017 by FIZ Karlsruhe - Leibniz Institute for Information Infrastructure.  All rights reserved.
data_24699-ICSD
_database_code_ICSD 24699
_audit_creation_date 1980-01-01
_chemical_name_systematic 'Rhodium boride (2/1)'
_chemical_formula_structural 'Rh2 B'
_chemical_formula_sum 'B1 Rh2'
_chemical_name_structure_type Co2Si
_exptl_crystal_density_diffrn 8.81
_publ_section_title 'The Crystal Structure of Rh2 B'
loop_
_citation_id
_citation_journal_full
_citation_year
_citation_journal_volume
_citation_page_first
_citation_page_last
_citation_journal_id_ASTM
primary 'Acta Crystallographica (1,1948-23,1967)' 1954 7 49 53 ACCRA9
loop_
_publ_author_name
'Mooney, R.W.'
'Welch, A.J.E.'
_cell_length_a 5.42(1)
_cell_length_b 3.98(2)
_cell_length_c 7.44(3)
_cell_angle_alpha 90.
_cell_angle_beta 90.
_cell_angle_gamma 90.
_cell_volume 160.49
_cell_formula_units_Z 4
_symmetry_space_group_name_H-M 'P n m a'
_symmetry_Int_Tables_number 62
_refine_ls_R_factor_all 0.2
loop_
_symmetry_equiv_pos_site_id
_symmetry_equiv_pos_as_xyz
1 'x+1/2, y, -z+1/2'
2 'x, -y+1/2, z'
3 '-x+1/2, y+1/2, z+1/2'
4 '-x, -y, -z'
5 '-x+1/2, -y, z+1/2'
6 '-x, y+1/2, -z'
7 'x+1/2, -y+1/2, -z+1/2'
8 'x, y, z'
loop_
_atom_type_symbol
_atom_type_oxidation_number
Rh0+ 0
B0+ 0
loop_
_atom_site_label
_atom_site_type_symbol
_atom_site_symmetry_multiplicity
_atom_site_Wyckoff_symbol
_atom_site_fract_x
_atom_site_fract_y
_atom_site_fract_z
_atom_site_B_iso_or_equiv
_atom_site_occupancy
_atom_site_attached_hydrogens
Rh1 Rh0+ 4 c 0.026 0.25 0.2 . 1. 0
Rh2 Rh0+ 4 c 0.167 0.25 0.577 . 1. 0
B1 B0+ 4 c 0.73 0.25 0.6 . 1. 0
#End of TTdata_24699-ICSD