
#(C) 2017 by FIZ Karlsruhe - Leibniz Institute for Information Infrastructure.  All rights reserved.
data_24709-ICSD
_database_code_ICSD 24709
_audit_creation_date 1980-01-01
_audit_update_record 1988-04-29
_chemical_name_systematic 'Ammonium oxide'
_chemical_formula_structural '(N H4)2 O'
_chemical_formula_sum 'H8 N2 O1'
_exptl_crystal_density_diffrn 0.92
_cell_measurement_temperature 178.
_publ_section_title 'The Crystal Structure of Ammonium Oxide'
loop_
_citation_id
_citation_journal_full
_citation_year
_citation_journal_volume
_citation_page_first
_citation_page_last
_citation_journal_id_ASTM
primary 'Acta Crystallographica (1,1948-23,1967)' 1954 7 194 198 ACCRA9
loop_
_publ_author_name
'Siemons, W.J.'
'Templeton, D.H.'
_cell_length_a 8.41(3)
_cell_length_b 8.41(3)
_cell_length_c 5.33(2)
_cell_angle_alpha 90.
_cell_angle_beta 90.
_cell_angle_gamma 90.
_cell_volume 376.98
_cell_formula_units_Z 4
_symmetry_space_group_name_H-M 'P b n m'
_symmetry_Int_Tables_number 62
_refine_ls_R_factor_all 0.19
loop_
_symmetry_equiv_pos_site_id
_symmetry_equiv_pos_as_xyz
1 '-x+1/2, y+1/2, z'
2 'x, y, -z+1/2'
3 'x+1/2, -y+1/2, z+1/2'
4 '-x, -y, -z'
5 'x+1/2, -y+1/2, -z'
6 '-x, -y, z+1/2'
7 '-x+1/2, y+1/2, -z+1/2'
8 'x, y, z'
loop_
_atom_type_symbol
_atom_type_oxidation_number
N3- -3
O2- -2
H1+ 1
loop_
_atom_site_label
_atom_site_type_symbol
_atom_site_symmetry_multiplicity
_atom_site_Wyckoff_symbol
_atom_site_fract_x
_atom_site_fract_y
_atom_site_fract_z
_atom_site_B_iso_or_equiv
_atom_site_occupancy
_atom_site_attached_hydrogens
N1 N3- 4 c 0.411(5) 0.131(5) 0.25 2.3 1. 0
N2 N3- 4 c 0.845(5) 0.037(5) 0.25 2.3 1. 0
O1 O2- 4 c 0.100(5) 0.261(5) 0.25 2.3 1. 0
#End of TTdata_24709-ICSD