
#(C) 2017 by FIZ Karlsruhe - Leibniz Institute for Information Infrastructure.  All rights reserved.
data_247425-ICSD
_database_code_ICSD 247425
_audit_creation_date 2011-02-01
_audit_update_record 2012-02-01
_chemical_name_systematic 'Scandium platinium silicide (2/3/2)'
_chemical_formula_structural 'Sc2 Pt3 Si2'
_chemical_formula_sum 'Pt3 Sc2 Si2'
_exptl_crystal_density_diffrn 10.93
_publ_section_title

;
X-ray structural study of intermetallic alloys R T2 Si and R T Si2 (R = rare
earth, T = noble metal)
;
loop_
_citation_id
_citation_journal_full
_citation_year
_citation_journal_volume
_citation_page_first
_citation_page_last
_citation_journal_id_ASTM
primary 'Journal of Solid State Chemistry' 2010 183 1278 1289 JSSCBI
loop_
_publ_author_name
'Gribanov, A.'
'Grytsiv, A.'
'Rogl, P.'
'Seropegin, Y.'
'Giester, G.'
_cell_length_a 6.3488(2)
_cell_length_b 8.6803(2)
_cell_length_c 4.0324(2)
_cell_angle_alpha 90.
_cell_angle_beta 90.
_cell_angle_gamma 90.
_cell_volume 222.22
_cell_formula_units_Z 2
_symmetry_space_group_name_H-M 'P b a m'
_symmetry_Int_Tables_number 55
_refine_ls_R_factor_all 0.037
loop_
_symmetry_equiv_pos_site_id
_symmetry_equiv_pos_as_xyz
1 'x+1/2, -y+1/2, z'
2 '-x+1/2, y+1/2, z'
3 'x, y, -z'
4 '-x, -y, -z'
5 '-x+1/2, y+1/2, -z'
6 'x+1/2, -y+1/2, -z'
7 '-x, -y, z'
8 'x, y, z'
loop_
_atom_type_symbol
_atom_type_oxidation_number
Sc0+ 0
Pt0+ 0
Si0+ 0
loop_
_atom_site_label
_atom_site_type_symbol
_atom_site_symmetry_multiplicity
_atom_site_Wyckoff_symbol
_atom_site_fract_x
_atom_site_fract_y
_atom_site_fract_z
_atom_site_B_iso_or_equiv
_atom_site_occupancy
_atom_site_attached_hydrogens
Sc1 Sc0+ 4 g 0.3910(2) 0.1698(2) 0 0.0046(3) 1. 0
Pt1 Pt0+ 4 h 0.19141(4) 0.41333(3) 0.5 0.0045(2) 1. 0
Pt2 Pt0+ 2 a 0 0 0 0.0039(2) 1. 0
Si1 Si0+ 4 h 0.0753(4) 0.1501(3) 0.5 0.0047(4) 1. 0
#End of TTdata_247425-ICSD