
#(C) 2017 by FIZ Karlsruhe - Leibniz Institute for Information Infrastructure.  All rights reserved.
data_24764-ICSD
_database_code_ICSD 24764
_audit_creation_date 1986-09-26
_chemical_name_systematic 'Strontium peroxide diperhydrate - alpha'
_chemical_formula_structural 'Sr O2 (H2 O2)2'
_chemical_formula_sum 'H4 O6 Sr1'
_chemical_name_structure_type BaO2(H2O2)2
_exptl_crystal_density_diffrn 3.16
_publ_section_title

;
On the system (Sr O2) (H2 O) (H2 O2) I. The Crystal Structure of alpha- and
beta-Sr O2 (H2 O2)2
;
loop_
_citation_id
_citation_journal_full
_citation_year
_citation_journal_volume
_citation_page_first
_citation_page_last
_citation_journal_id_ASTM
primary 'Arkiv foer Kemi' 1958 13 29 41 ARKEAD
loop_
_publ_author_name
'Vannerberg, N.G.'
_cell_length_a 8.262(6)
_cell_length_b 6.024(4)
_cell_length_c 8.050(5)
_cell_angle_alpha 90.
_cell_angle_beta 79.47(13)
_cell_angle_gamma 90.
_cell_volume 393.9
_cell_formula_units_Z 4
_symmetry_space_group_name_H-M 'C 1 2/c 1'
_symmetry_Int_Tables_number 15
_refine_ls_R_factor_all 0.2
loop_
_symmetry_equiv_pos_site_id
_symmetry_equiv_pos_as_xyz
1 'x, -y, z+1/2'
2 '-x, -y, -z'
3 '-x, y, -z+1/2'
4 'x, y, z'
5 'x+1/2, -y+1/2, z+1/2'
6 '-x+1/2, -y+1/2, -z'
7 '-x+1/2, y+1/2, -z+1/2'
8 'x+1/2, y+1/2, z'
loop_
_atom_type_symbol
_atom_type_oxidation_number
Sr2+ 2
O1- -1
H1+ 1
loop_
_atom_site_label
_atom_site_type_symbol
_atom_site_symmetry_multiplicity
_atom_site_Wyckoff_symbol
_atom_site_fract_x
_atom_site_fract_y
_atom_site_fract_z
_atom_site_B_iso_or_equiv
_atom_site_occupancy
_atom_site_attached_hydrogens
Sr1 Sr2+ 4 e 0 0.179(10) 0.25 2.3 1. 0
O1 O1- 8 f 0.173(60) 0.01(3) 0.45(6) 2.3 1. 0
O2 O1- 8 f 0.196(70) -.15(1) 0.308(10) 2.3 1. 0
O3 O1- 8 f 0.015(80) 0.52(3) 0.088(90) 2.3 1. 0
#End of TTdata_24764-ICSD