
#(C) 2017 by FIZ Karlsruhe - Leibniz Institute for Information Infrastructure.  All rights reserved.
data_24776-ICSD
_database_code_ICSD 24776
_audit_creation_date 1986-09-26
_audit_update_record 2012-02-01
_chemical_name_systematic 'Barium peroxide diperhydrate - alpha'
_chemical_formula_structural 'Ba O2 (H2 O2)2'
_chemical_formula_sum 'H4 Ba1 O6'
_chemical_name_structure_type BaO2(H2O2)2
_exptl_crystal_density_diffrn 3.63
_publ_section_title

;
On the system Ba O2 - H2 O - H2 O2 3. The crystal structure of alpha-, beta-,
and gamma-Ba O2 (H2 O2)2 and Ba O2 H2 O2 (H2 O)2
;
loop_
_citation_id
_citation_journal_full
_citation_year
_citation_journal_volume
_citation_page_first
_citation_page_last
_citation_journal_id_ASTM
primary 'Arkiv foer Kemi' 1959 14 125 145 ARKEAD
loop_
_publ_author_name
'Vannerberg, N.G.'
_cell_length_a 8.454(6)
_cell_length_b 6.398(4)
_cell_length_c 8.084(5)
_cell_angle_alpha 90.
_cell_angle_beta 96.53(7)
_cell_angle_gamma 90.
_cell_volume 434.42
_cell_formula_units_Z 4
_symmetry_space_group_name_H-M 'C 1 2/c 1'
_symmetry_Int_Tables_number 15
_refine_ls_R_factor_all 0.15
loop_
_symmetry_equiv_pos_site_id
_symmetry_equiv_pos_as_xyz
1 'x, -y, z+1/2'
2 '-x, -y, -z'
3 '-x, y, -z+1/2'
4 'x, y, z'
5 'x+1/2, -y+1/2, z+1/2'
6 '-x+1/2, -y+1/2, -z'
7 '-x+1/2, y+1/2, -z+1/2'
8 'x+1/2, y+1/2, z'
loop_
_atom_type_symbol
_atom_type_oxidation_number
Ba2+ 2
O1- -1
H1+ 1
loop_
_atom_site_label
_atom_site_type_symbol
_atom_site_symmetry_multiplicity
_atom_site_Wyckoff_symbol
_atom_site_fract_x
_atom_site_fract_y
_atom_site_fract_z
_atom_site_B_iso_or_equiv
_atom_site_occupancy
_atom_site_attached_hydrogens
Ba1 Ba2+ 4 e 0 0.206 0.25 . 1. 0
O1 O1- 8 f 0.179 0.975 0.026 . 1. 0
O2 O1- 8 f 0.173 0.865 0.202 . 1. 0
O3 O1- 8 f 0.458 0.06 0.059 . 1. 0
#End of TTdata_24776-ICSD