
data_24818-ICSD
_database_code_ICSD 24818
_audit_creation_date 1982-12-31
_audit_update_record 2007-08-01
_chemical_name_systematic 'Potassium silver oxide'
_chemical_formula_structural 'K Ag O'
_chemical_formula_sum 'Ag1 K1 O1'
_chemical_name_structure_type LiCuO(I4-2m)
_exptl_crystal_density_diffrn 4.06
_cell_length_a 9.893(1)
_cell_length_b 9.893(1)
_cell_length_c 5.445(1)
_cell_angle_alpha 90.
_cell_angle_beta 90.
_cell_angle_gamma 90.
_cell_volume 532.91
_cell_formula_units_Z 8
_symmetry_space_group_name_H-M 'I -4 m 2'
_symmetry_Int_Tables_number 119
_refine_ls_R_factor_all 0.067
loop_
_symmetry_equiv_pos_site_id
_symmetry_equiv_pos_as_xyz
1 'y, x, -z'
2 '-y, -x, -z'
3 'y, -x, -z'
4 '-y, x, -z'
5 'x, -y, z'
6 '-x, y, z'
7 '-x, -y, z'
8 'x, y, z'
9 'y+1/2, x+1/2, -z+1/2'
10 '-y+1/2, -x+1/2, -z+1/2'
11 'y+1/2, -x+1/2, -z+1/2'
12 '-y+1/2, x+1/2, -z+1/2'
13 'x+1/2, -y+1/2, z+1/2'
14 '-x+1/2, y+1/2, z+1/2'
15 '-x+1/2, -y+1/2, z+1/2'
16 'x+1/2, y+1/2, z+1/2'
loop_
_atom_type_symbol
_atom_type_oxidation_number
K1+ 1
Ag1+ 1
O2- -2
loop_
_atom_site_label
_atom_site_type_symbol
_atom_site_symmetry_multiplicity
_atom_site_Wyckoff_symbol
_atom_site_fract_x
_atom_site_fract_y
_atom_site_fract_z
_atom_site_B_iso_or_equiv
_atom_site_occupancy
_atom_site_attached_hydrogens
K1 K1+ 8 i 0.1780(4) 0 0.7661(8) . 1. 0
Ag1 Ag1+ 8 h 0.3520(1) 0.1480(1) 0.25 . 1. 0
O1 O2- 8 i 0.2058(11) 0 0.2538(20) 0.0172(29) 1. 0
loop_
_atom_site_aniso_label
_atom_site_aniso_type_symbol
_atom_site_aniso_U_11
_atom_site_aniso_U_22
_atom_site_aniso_U_33
_atom_site_aniso_U_12
_atom_site_aniso_U_13
_atom_site_aniso_U_23
K1 K1+ 0.0178(17) 0.0128(15) 0.0151(24) 0 0.0032(28) 0
Ag1 Ag1+ 0.0130(5) 0.0130(5) 0.0217(8) 0.0012(4) 0.0035(9) -0.0035(9)
