
#(C) 2017 by FIZ Karlsruhe - Leibniz Institute for Information Infrastructure.  All rights reserved.
data_24904-ICSD
_database_code_ICSD 24904
_audit_creation_date 1980-01-01
_audit_update_record 2007-04-01
_chemical_name_systematic 'Dirubidium molybdate - I'
_chemical_formula_structural 'Rb2 (Mo O4)'
_chemical_formula_sum 'Mo1 O4 Rb2'
_chemical_name_structure_type K2MoO4
_exptl_crystal_density_diffrn 3.88
_publ_section_title
'The structures of potassium, rubidium and cesium molybdate and tungstate'
loop_
_citation_id
_citation_journal_full
_citation_year
_citation_journal_volume
_citation_page_first
_citation_page_last
_citation_journal_id_ASTM
primary 'Acta Crystallographica B (24,1968-38,1982)' 1970 26 1974 1977 ACBCAR
loop_
_publ_author_name
'Kools, F.X.N.M.'
'Koster, A.S.'
'Rieck, G.D.'
_cell_length_a 12.821(2)
_cell_length_b 6.253(1)
_cell_length_c 7.842(1)
_cell_angle_alpha 90.
_cell_angle_beta 115.64(1)
_cell_angle_gamma 90.
_cell_volume 566.78
_cell_formula_units_Z 4
_symmetry_space_group_name_H-M 'C 1 2/m 1'
_symmetry_Int_Tables_number 12
loop_
_symmetry_equiv_pos_site_id
_symmetry_equiv_pos_as_xyz
1 '-x, y, -z'
2 '-x, -y, -z'
3 'x, -y, z'
4 'x, y, z'
5 '-x+1/2, y+1/2, -z'
6 '-x+1/2, -y+1/2, -z'
7 'x+1/2, -y+1/2, z'
8 'x+1/2, y+1/2, z'
loop_
_atom_type_symbol
_atom_type_oxidation_number
Rb1+ 1
Mo6+ 6
O2- -2
loop_
_atom_site_label
_atom_site_type_symbol
_atom_site_symmetry_multiplicity
_atom_site_Wyckoff_symbol
_atom_site_fract_x
_atom_site_fract_y
_atom_site_fract_z
_atom_site_B_iso_or_equiv
_atom_site_occupancy
_atom_site_attached_hydrogens
Rb1 Rb1+ 4 i 0.348(3) 0.5 0.269(5) 2. 1. 0
Rb2 Rb1+ 4 i 0.015(3) 0.5 0.237(6) 2. 1. 0
Mo1 Mo6+ 4 i 0.174(2) 0 0.227(4) 1.8 1. 0
O1 O2- 4 i 0.084(2) 0 0.351(4) 4. 1. 0
O2 O2- 4 i 0.336(2) 0 0.377(4) 4. 1. 0
O3 O2- 8 j 0.141(2) 0.239(3) 0.074(4) 4. 1. 0
#End of TTdata_24904-ICSD