
#(C) 2017 by FIZ Karlsruhe - Leibniz Institute for Information Infrastructure.  All rights reserved.
data_249209-ICSD
_database_code_ICSD 249209
_audit_creation_date 2008-02-01
_chemical_name_systematic 'Trilanthanum dinickel(I,II) hexaoxide'
_chemical_formula_structural 'La3 Ni2 O6'
_chemical_formula_sum 'La3 Ni2 O6'
_exptl_crystal_density_diffrn 6.88
_cell_measurement_temperature 298.
_publ_section_title
'La3 Ni2 O6: A new double T-type nickelate with infinite Ni1+/2+ O2 layers'
loop_
_citation_id
_citation_journal_full
_citation_year
_citation_journal_volume
_citation_page_first
_citation_page_last
_citation_journal_id_ASTM
primary 'Journal of the American Chemical Society' 2006 128 9050 9051 JACSAT
loop_
_publ_author_name
'Poltavets, V.V.'
'Lokshin, K.A.'
'Dikmen, S.'
'Croft, M.'
'Egami, T.'
'Greenblatt, M.'
_cell_length_a 3.9686(1)
_cell_length_b 3.9686(1)
_cell_length_c 19.3154(6)
_cell_angle_alpha 90.
_cell_angle_beta 90.
_cell_angle_gamma 90.
_cell_volume 304.21
_cell_formula_units_Z 2
_symmetry_space_group_name_H-M 'I 4/m m m'
_symmetry_Int_Tables_number 139
loop_
_symmetry_equiv_pos_site_id
_symmetry_equiv_pos_as_xyz
1 'y, x, -z'
2 '-y, -x, -z'
3 '-y, x, -z'
4 'y, -x, -z'
5 '-x, y, -z'
6 'x, -y, -z'
7 'x, y, -z'
8 '-x, -y, -z'
9 '-y, -x, z'
10 'y, x, z'
11 'y, -x, z'
12 '-y, x, z'
13 'x, -y, z'
14 '-x, y, z'
15 '-x, -y, z'
16 'x, y, z'
17 'y+1/2, x+1/2, -z+1/2'
18 '-y+1/2, -x+1/2, -z+1/2'
19 '-y+1/2, x+1/2, -z+1/2'
20 'y+1/2, -x+1/2, -z+1/2'
21 '-x+1/2, y+1/2, -z+1/2'
22 'x+1/2, -y+1/2, -z+1/2'
23 'x+1/2, y+1/2, -z+1/2'
24 '-x+1/2, -y+1/2, -z+1/2'
25 '-y+1/2, -x+1/2, z+1/2'
26 'y+1/2, x+1/2, z+1/2'
27 'y+1/2, -x+1/2, z+1/2'
28 '-y+1/2, x+1/2, z+1/2'
29 'x+1/2, -y+1/2, z+1/2'
30 '-x+1/2, y+1/2, z+1/2'
31 '-x+1/2, -y+1/2, z+1/2'
32 'x+1/2, y+1/2, z+1/2'
loop_
_atom_type_symbol
_atom_type_oxidation_number
La3+ 3
Ni1+ 1.5
O2- -2
loop_
_atom_site_label
_atom_site_type_symbol
_atom_site_symmetry_multiplicity
_atom_site_Wyckoff_symbol
_atom_site_fract_x
_atom_site_fract_y
_atom_site_fract_z
_atom_site_B_iso_or_equiv
_atom_site_occupancy
_atom_site_attached_hydrogens
La1 La3+ 2 b 0. 0. 0.5 0.00501(25) 1. 0
La2 La3+ 4 e 0. 0. 0.3170(1) 0.00716(17) 1. 0
Ni1 Ni1+ 4 e 0. 0. 0.0826(1) 0.00691(12) 1. 0
O1 O2- 4 d 0. 0.5 0.25 0.01044(31) 1. 0
O2 O2- 8 g 0. 0.5 0.0838(1) 0.00966(18) 1. 0
#End of TTdata_249209-ICSD