
#(C) 2017 by FIZ Karlsruhe - Leibniz Institute for Information Infrastructure.  All rights reserved.
data_249221-ICSD
_database_code_ICSD 249221
_audit_creation_date 2008-02-01
_chemical_name_systematic 'Potassium gold indide (1/4/2)'
_chemical_formula_structural 'K Au4 In2'
_chemical_formula_sum 'Au4 In2 K1'
_chemical_name_structure_type SrNi4Sn2
_exptl_crystal_density_diffrn 11.16
_publ_section_title

;
Intermetallic compounds with 1D infinite tunnels. Syntheses and structures of
A Au4 In2 (A=K,Rb)
;
loop_
_citation_id
_citation_journal_full
_citation_year
_citation_journal_volume
_citation_page_first
_citation_page_last
_citation_journal_id_ASTM
primary 'Journal of the American Chemical Society' 2006 128 12392 12393 JACSAT
loop_
_publ_author_name
'Li Bin'
'Corbett, J.D.'
_cell_length_a 8.6675(12)
_cell_length_b 8.6675(12)
_cell_length_c 8.3684(17)
_cell_angle_alpha 90.
_cell_angle_beta 90.
_cell_angle_gamma 90.
_cell_volume 628.68
_cell_formula_units_Z 4
_symmetry_space_group_name_H-M 'I 4/m c m'
_symmetry_Int_Tables_number 140
_refine_ls_R_factor_all 0.0744
loop_
_symmetry_equiv_pos_site_id
_symmetry_equiv_pos_as_xyz
1 'y, x, -z+1/2'
2 '-y, -x, -z+1/2'
3 '-y, x, -z'
4 'y, -x, -z'
5 'x, -y, -z+1/2'
6 '-x, y, -z+1/2'
7 'x, y, -z'
8 '-x, -y, -z'
9 '-y, -x, z+1/2'
10 'y, x, z+1/2'
11 'y, -x, z'
12 '-y, x, z'
13 '-x, y, z+1/2'
14 'x, -y, z+1/2'
15 '-x, -y, z'
16 'x, y, z'
17 'y+1/2, x+1/2, -z'
18 '-y+1/2, -x+1/2, -z'
19 '-y+1/2, x+1/2, -z+1/2'
20 'y+1/2, -x+1/2, -z+1/2'
21 'x+1/2, -y+1/2, -z'
22 '-x+1/2, y+1/2, -z'
23 'x+1/2, y+1/2, -z+1/2'
24 '-x+1/2, -y+1/2, -z+1/2'
25 '-y+1/2, -x+1/2, z'
26 'y+1/2, x+1/2, z'
27 'y+1/2, -x+1/2, z+1/2'
28 '-y+1/2, x+1/2, z+1/2'
29 '-x+1/2, y+1/2, z'
30 'x+1/2, -y+1/2, z'
31 '-x+1/2, -y+1/2, z+1/2'
32 'x+1/2, y+1/2, z+1/2'
loop_
_atom_type_symbol
_atom_type_oxidation_number
Au0+ 0
In0+ 0
K0+ 0
loop_
_atom_site_label
_atom_site_type_symbol
_atom_site_symmetry_multiplicity
_atom_site_Wyckoff_symbol
_atom_site_fract_x
_atom_site_fract_y
_atom_site_fract_z
_atom_site_B_iso_or_equiv
_atom_site_occupancy
_atom_site_attached_hydrogens
Au1 Au0+ 16 l 0.14983(12) 0.64983(12) 0.33474(13) 0.0215(5) 1 0
In1 In0+ 8 h 0.1466(4) 0.6466(4) 0. 0.0203(7) 1 0
K1 K0+ 4 a 0. 0. 0.25 0.042(5) 1 0
loop_
_atom_site_aniso_label
_atom_site_aniso_type_symbol
_atom_site_aniso_U_11
_atom_site_aniso_U_22
_atom_site_aniso_U_33
_atom_site_aniso_U_12
_atom_site_aniso_U_13
_atom_site_aniso_U_23
Au1 Au0+ 0.0236(6) 0.0236(6) 0.0175(7) -0.0028(8) 0.0003(5) 0.0003(5)
In1 In0+ 0.0209(10) 0.0209(10) 0.0193(13) 0.001(3) 0. 0.
K1 K0+ 0.031(5) 0.031(5) 0.062(13) 0. 0. 0.
#End of TTdata_249221-ICSD