
data_249521-ICSD
_database_code_ICSD 249521
_audit_creation_date 2008-08-01
_chemical_name_systematic 'Rubidium gold indide (1/4/6)'
_chemical_formula_structural 'Rb Au4 In6'
_chemical_formula_sum 'Au4 In6 Rb1'
_chemical_name_structure_type LiCo6P4
_exptl_crystal_density_diffrn 10.23
_cell_measurement_temperature 293.
_cell_length_a 8.0788(11)
_cell_length_b 8.0788(11)
_cell_length_c 4.4857(9)
_cell_angle_alpha 90.
_cell_angle_beta 90.
_cell_angle_gamma 120.
_cell_volume 253.54
_cell_formula_units_Z 1
_symmetry_space_group_name_H-M 'P -6 m 2'
_symmetry_Int_Tables_number 187
_refine_ls_R_factor_all 0.0389
loop_
_symmetry_equiv_pos_site_id
_symmetry_equiv_pos_as_xyz
1 'x, x-y, -z'
2 '-x+y, y, -z'
3 '-y, -x, -z'
4 'x, x-y, z'
5 '-x+y, y, z'
6 '-y, -x, z'
7 '-x+y, -x, -z'
8 '-y, x-y, -z'
9 'x, y, -z'
10 '-x+y, -x, z'
11 '-y, x-y, z'
12 'x, y, z'
loop_
_atom_type_symbol
_atom_type_oxidation_number
Au0+ 0
In0+ 0
Rb0+ 0
loop_
_atom_site_label
_atom_site_type_symbol
_atom_site_symmetry_multiplicity
_atom_site_Wyckoff_symbol
_atom_site_fract_x
_atom_site_fract_y
_atom_site_fract_z
_atom_site_B_iso_or_equiv
_atom_site_occupancy
_atom_site_attached_hydrogens
Au1 Au0+ 1 c 0.3333 0.6667 0. 0.0208(7) 1 0
Au2 Au0+ 3 k 0.79309(11) 0.20691(11) 0.5 0.0206(5) 1 0
In1 In0+ 3 k 0.1965(2) 0.8035(2) 0.5 0.0204(7) 1 0
In2 In0+ 3 j 0.53468(19) 0.46532(19) 0. 0.0204(7) 1 0
Rb1 Rb0+ 1 a 0. 0. 0. 0.0217(12) 1 0
loop_
_atom_site_aniso_label
_atom_site_aniso_type_symbol
_atom_site_aniso_U_11
_atom_site_aniso_U_22
_atom_site_aniso_U_33
_atom_site_aniso_U_12
_atom_site_aniso_U_13
_atom_site_aniso_U_23
Au1 Au0+ 0.0201(9) 0.0201(9) 0.0221(12) 0.0100(4) 0. 0.
Au2 Au0+ 0.0178(5) 0.0178(5) 0.0251(8) 0.0081(6) 0. 0.
In1 In0+ 0.0201(11) 0.0201(11) 0.0233(14) 0.0119(11) 0. 0.
In2 In0+ 0.0202(10) 0.0202(10) 0.0228(12) 0.0117(11) 0. 0.
Rb1 Rb0+ 0.0231(18) 0.0231(18) 0.019(2) 0.0115(9) 0. 0.
