
#(C) 2017 by FIZ Karlsruhe - Leibniz Institute for Information Infrastructure.  All rights reserved.
data_249644-ICSD
_database_code_ICSD 249644
_audit_creation_date 2009-02-01
_chemical_name_systematic 'Potassium auride stannide (1/4/6)'
_chemical_formula_structural 'K Au4 Sn6'
_chemical_formula_sum 'Au4 K1 Sn6'
_exptl_crystal_density_diffrn 9.69
_cell_measurement_temperature 293.
_publ_section_title

;
Similar K@ Au10 Sn10 polyhedra in the markedly different structures of K Au4
Sn6 and K Au3 Sn3. Syntheses and characterization
;
loop_
_citation_id
_citation_journal_full
_citation_year
_citation_journal_volume
_citation_page_first
_citation_page_last
_citation_journal_id_ASTM
primary 'Inorganic Chemistry' 2008 47 3610 3616 INOCAJ
loop_
_publ_author_name
'Li Bin'
'Corbett, J.D.'
_cell_length_a 8.709(1)
_cell_length_b 10.028(2)
_cell_length_c 24.157(5)
_cell_angle_alpha 90.
_cell_angle_beta 90.
_cell_angle_gamma 90.
_cell_volume 2109.72
_cell_formula_units_Z 8
_symmetry_space_group_name_H-M 'F d d d Z'
_symmetry_Int_Tables_number 70
_refine_ls_R_factor_all 0.0408
loop_
_symmetry_equiv_pos_site_id
_symmetry_equiv_pos_as_xyz
1 'x+3/4, y+3/4, -z'
2 'x+3/4, -y, z+3/4'
3 '-x, y+3/4, z+3/4'
4 '-x, -y, -z'
5 '-x+1/4, -y+1/4, z'
6 '-x+1/4, y, -z+1/4'
7 'x, -y+1/4, -z+1/4'
8 'x, y, z'
9 'x+3/4, y+1/4, -z+1/2'
10 'x+3/4, -y+1/2, z+1/4'
11 '-x, y+1/4, z+1/4'
12 '-x, -y+1/2, -z+1/2'
13 '-x+1/4, -y+3/4, z+1/2'
14 '-x+1/4, y+1/2, -z+3/4'
15 'x, -y+3/4, -z+3/4'
16 'x, y+1/2, z+1/2'
17 'x+1/4, y+3/4, -z+1/2'
18 'x+1/4, -y, z+1/4'
19 '-x+1/2, y+3/4, z+1/4'
20 '-x+1/2, -y, -z+1/2'
21 '-x+3/4, -y+1/4, z+1/2'
22 '-x+3/4, y, -z+3/4'
23 'x+1/2, -y+1/4, -z+3/4'
24 'x+1/2, y, z+1/2'
25 'x+1/4, y+1/4, -z'
26 'x+1/4, -y+1/2, z+3/4'
27 '-x+1/2, y+1/4, z+3/4'
28 '-x+1/2, -y+1/2, -z'
29 '-x+3/4, -y+3/4, z'
30 '-x+3/4, y+1/2, -z+1/4'
31 'x+1/2, -y+3/4, -z+1/4'
32 'x+1/2, y+1/2, z'
loop_
_atom_type_symbol
_atom_type_oxidation_number
Au0+ 0
Sn0+ 0
K0+ 0
loop_
_atom_site_label
_atom_site_type_symbol
_atom_site_symmetry_multiplicity
_atom_site_Wyckoff_symbol
_atom_site_fract_x
_atom_site_fract_y
_atom_site_fract_z
_atom_site_B_iso_or_equiv
_atom_site_occupancy
_atom_site_attached_hydrogens
Au1 Au0+ 16 g 0.125 0.125 0.31266(3) 0.0135(3) 1 0
Au2 Au0+ 16 g 0.125 0.125 0.43159(3) 0.0142(3) 1 0
Sn1 Sn0+ 16 f 0.125 0.26953(9) 0.125 0.0118(3) 1 0
Sn2 Sn0+ 32 h 0.37527(6) 0.12247(5) 0.00956(5) 0.0133(3) 1 0
K1 K0+ 8 b 0.125 0.125 0.625 0.0186(10) 1 0
loop_
_atom_site_aniso_label
_atom_site_aniso_type_symbol
_atom_site_aniso_U_11
_atom_site_aniso_U_22
_atom_site_aniso_U_33
_atom_site_aniso_U_12
_atom_site_aniso_U_13
_atom_site_aniso_U_23
Au1 Au0+ 0.0134(4) 0.0154(4) 0.0117(4) 0.0012(4) 0. 0.
Au2 Au0+ 0.0135(4) 0.0162(4) 0.0128(4) 0.0025(4) 0. 0.
Sn1 Sn0+ 0.0100(5) 0.0110(5) 0.0143(7) 0. 0.0001(4) 0.
Sn2 Sn0+ 0.0128(5) 0.0120(5) 0.0152(6) -0.0003(8) -0.0013(2) -0.0003(2)
K1 K0+ 0.021(2) 0.0101(19) 0.024(3) 0. 0. 0.
#End of TTdata_249644-ICSD