
#(C) 2017 by FIZ Karlsruhe - Leibniz Institute for Information Infrastructure.  All rights reserved.
data_249924-ICSD
_database_code_ICSD 249924
_audit_creation_date 2010-02-01
_chemical_name_systematic 'Rubidium thallium auride (2/1/3)'
_chemical_formula_structural 'Rb2 Au3 Tl'
_chemical_formula_sum 'Au3 Rb2 Tl1'
_exptl_crystal_density_diffrn 9.3
_cell_measurement_temperature 293.
_publ_section_title

;
Gold tetrahedra as building blocks in K3 Au5 Tr (Tr = In, Tl) and rb2 Au3 Tl
and in other compounds: A broad group of electron-poor intermetallic phases
;
loop_
_citation_id
_citation_journal_full
_citation_year
_citation_journal_volume
_citation_page_first
_citation_page_last
_citation_journal_id_ASTM
primary 'Inorganic Chemistry' 2009 48 6573 6583 INOCAJ
loop_
_publ_author_name
'Li Bin'
'Kim Sung Jin'
'Miller, G.J.'
'Corbett, J.D.'
_cell_length_a 5.660(1)
_cell_length_b 6.741(1)
_cell_length_c 9.045(2)
_cell_angle_alpha 90.
_cell_angle_beta 90.
_cell_angle_gamma 90.
_cell_volume 345.1
_cell_formula_units_Z 2
_symmetry_space_group_name_H-M 'P m m a'
_symmetry_Int_Tables_number 51
_refine_ls_R_factor_all 0.0462
loop_
_symmetry_equiv_pos_site_id
_symmetry_equiv_pos_as_xyz
1 '-x+1/2, -y, z'
2 'x+1/2, -y, -z'
3 'x, -y, z'
4 '-x, -y, -z'
5 'x+1/2, y, -z'
6 '-x+1/2, y, z'
7 '-x, y, -z'
8 'x, y, z'
loop_
_atom_type_symbol
_atom_type_oxidation_number
Tl0+ 0
Au0+ 0
Rb0+ 0
loop_
_atom_site_label
_atom_site_type_symbol
_atom_site_symmetry_multiplicity
_atom_site_Wyckoff_symbol
_atom_site_fract_x
_atom_site_fract_y
_atom_site_fract_z
_atom_site_B_iso_or_equiv
_atom_site_occupancy
_atom_site_attached_hydrogens
Tl1 Tl0+ 2 f 0.25 0.5 0.57444(17) 0.0222(4) 1 0
Au1 Au0+ 4 k 0.25 0.20949(16) 0.78478(12) 0.0217(4) 1 0
Au2 Au0+ 2 a 0. 0. 0. 0.0189(4) 1 0
Rb1 Rb0+ 2 e 0.25 0. 0.3741(5) 0.0290(9) 1 0
Rb2 Rb0+ 2 f 0.25 0.5 0.1328(5) 0.0269(8) 1 0
loop_
_atom_site_aniso_label
_atom_site_aniso_type_symbol
_atom_site_aniso_U_11
_atom_site_aniso_U_22
_atom_site_aniso_U_33
_atom_site_aniso_U_12
_atom_site_aniso_U_13
_atom_site_aniso_U_23
Tl1 Tl0+ 0.0277(7) 0.0189(7) 0.0199(7) 0. 0. 0.
Au1 Au0+ 0.0220(5) 0.0200(6) 0.0232(6) 0. 0. 0.0047(4)
Au2 Au0+ 0.0182(7) 0.0207(7) 0.0177(6) 0. 0.0030(5) 0.
Rb1 Rb0+ 0.0240(17) 0.035(2) 0.0279(19) 0. 0. 0.
Rb2 Rb0+ 0.0229(17) 0.0276(19) 0.0302(19) 0. 0. 0.
#End of TTdata_249924-ICSD