
#(C) 2017 by FIZ Karlsruhe - Leibniz Institute for Information Infrastructure.  All rights reserved.
data_250364-ICSD
_database_code_ICSD 250364
_audit_creation_date 2007-04-01
_audit_update_record 2013-08-01
_chemical_name_systematic 'Vanadium(IV) chloride'
_chemical_formula_structural 'V Cl4'
_chemical_formula_sum 'Cl4 V1'
_chemical_name_structure_type SiCl4
_exptl_crystal_density_diffrn 2.21
_publ_section_title 'Crystal structures of Sb Cl5, V Cl4 and V O Cl3'
loop_
_citation_id
_citation_journal_full
_citation_year
_citation_journal_volume
_citation_page_first
_citation_page_last
_citation_journal_id_ASTM
primary 'Zhurnal Neorganicheskoi Khimii' 2005 50 1845 1850 ZNOKAQ
loop_
_publ_author_name
'Troyanov, S.I.'
_cell_length_a 9.603(2)
_cell_length_b 6.417(2)
_cell_length_c 9.622(2)
_cell_angle_alpha 90.
_cell_angle_beta 102.20(2)
_cell_angle_gamma 90.
_cell_volume 579.54
_cell_formula_units_Z 4
_symmetry_space_group_name_H-M 'P 1 21/c 1'
_symmetry_Int_Tables_number 14
_refine_ls_R_factor_all 0.04
loop_
_symmetry_equiv_pos_site_id
_symmetry_equiv_pos_as_xyz
1 'x, -y+1/2, z+1/2'
2 '-x, -y, -z'
3 '-x, y+1/2, -z+1/2'
4 'x, y, z'
loop_
_atom_type_symbol
_atom_type_oxidation_number
V4+ 4
Cl1- -1
loop_
_atom_site_label
_atom_site_type_symbol
_atom_site_symmetry_multiplicity
_atom_site_Wyckoff_symbol
_atom_site_fract_x
_atom_site_fract_y
_atom_site_fract_z
_atom_site_B_iso_or_equiv
_atom_site_occupancy
_atom_site_attached_hydrogens
V1 V4+ 4 e 0.75126(3) 0.07624(5) 0.63510(4) 0.0213(1) 1 0
Cl1 Cl1- 4 e 0.69002(6) 0.38920(8) 0.57947(7) 0.0356(2) 1 0
Cl2 Cl1- 4 e 0.80659(6) -0.08000(8) 0.45919(6) 0.0360(2) 1 0
Cl3 Cl1- 4 e 0.57928(6) -0.08181(9) 0.69752(7) 0.0369(2) 1 0
Cl4 Cl1- 4 e 0.93073(5) 0.07352(9) 0.80870(6) 0.0346(2) 1 0
#End of TTdata_250364-ICSD