
#(C) 2017 by FIZ Karlsruhe - Leibniz Institute for Information Infrastructure.  All rights reserved.
data_250340-ICSD
_database_code_ICSD 250340
_audit_creation_date 2006-10-01
_audit_update_record 2007-08-01
_chemical_name_systematic 'Thallium scandium bis(molybdate) - beta, HT'
_chemical_formula_structural 'Tl Sc (Mo O4)2'
_chemical_formula_sum 'Mo2 O8 Sc1 Tl1'
_chemical_name_structure_type KAl(MoO4)2
_exptl_crystal_density_diffrn 4.38
_publ_section_title
'Structures of double molybdates Tl R (Mo O4)2 (R= In, Sc, Fe, Cr, Al)'
loop_
_citation_id
_citation_journal_full
_citation_year
_citation_journal_volume
_citation_page_first
_citation_page_last
_citation_journal_id_ASTM
primary 'Zhurnal Neorganicheskoi Khimii' 2005 50 667 677 ZNOKAQ
loop_
_publ_author_name
'Pleskov, M.Yu.'
'Morozov, V.A.'
'Lazoryak, B.I.'
'Zhizhin, M.G.'
'Burdakova, I.B.'
'Khal'baeva, K.M.'
'Tsyrenova, G.D.'
'Khaikina, E.G.'
_cell_length_a 5.784(1)
_cell_length_b 5.784(1)
_cell_length_c 7.445(1)
_cell_angle_alpha 90.
_cell_angle_beta 90.
_cell_angle_gamma 120.
_cell_volume 215.7
_cell_formula_units_Z 1
_symmetry_space_group_name_H-M 'P -3 m 1'
_symmetry_Int_Tables_number 164
_refine_ls_R_factor_all 0.0354
loop_
_symmetry_equiv_pos_site_id
_symmetry_equiv_pos_as_xyz
1 'x-y, -y, -z'
2 '-x, -x+y, -z'
3 'y, x, -z'
4 'x-y, x, -z'
5 'y, -x+y, -z'
6 '-x, -y, -z'
7 '-x+y, y, z'
8 'x, x-y, z'
9 '-y, -x, z'
10 '-x+y, -x, z'
11 '-y, x-y, z'
12 'x, y, z'
loop_
_atom_type_symbol
_atom_type_oxidation_number
Tl1+ 1
Sc3+ 3
Mo6+ 6
O2- -2
loop_
_atom_site_label
_atom_site_type_symbol
_atom_site_symmetry_multiplicity
_atom_site_Wyckoff_symbol
_atom_site_fract_x
_atom_site_fract_y
_atom_site_fract_z
_atom_site_B_iso_or_equiv
_atom_site_occupancy
_atom_site_attached_hydrogens
Tl1 Tl1+ 1 b 0 0 0.5 2.82(1) 1 0
Sc1 Sc3+ 1 a 0 0 0 0.87(1) 1 0
Mo1 Mo6+ 2 d 0.3333 0.6667 0.7578(1) 0.81(1) 1 0
O1 O2- 2 d 0.3333 0.6667 0.527(1) 2.3(1) 1 0
O2 O2- 6 i 0.1655(3) -0.1655(3) 0.8310(5) 2.24(6) 1 0
loop_
_atom_site_aniso_label
_atom_site_aniso_type_symbol
_atom_site_aniso_U_11
_atom_site_aniso_U_22
_atom_site_aniso_U_33
_atom_site_aniso_U_12
_atom_site_aniso_U_13
_atom_site_aniso_U_23
Tl1 Tl1+ 0.0454(2) 0.0454(2) 0.0137(1) 0.0227(1) 0 0
Sc1 Sc3+ 0.0109(1) 0.0109(1) 0.0081(1) 0.0055(1) 0 0
Mo1 Mo6+ 0.0101(2) 0.0101(2) 0.0122(4) 0.0050(1) 0 0
O1 O2- 0.031(1) 0.031(1) 0.031(1) 0.023(1) 0.005(1) -0.005(1)
O2 O2- 0.037(2) 0.037(2) 0.011(1) 0.019(1) 00 0
#End of TTdata_250340-ICSD