
#(C) 2017 by FIZ Karlsruhe - Leibniz Institute for Information Infrastructure.  All rights reserved.
data_250339-ICSD
_database_code_ICSD 250339
_audit_creation_date 2006-10-01
_chemical_name_systematic 'Thallium aluminium bis(molybdate) - beta'
_chemical_formula_structural 'Tl Al (Mo O4)2'
_chemical_formula_sum 'Al1 Mo2 O8 Tl1'
_chemical_name_structure_type KAl(MoO4)2
_exptl_crystal_density_diffrn 4.65
_publ_section_title
'Structures of double molybdates Tl R (Mo O4)2 (R= In, Sc, Fe, Cr, Al)'
loop_
_citation_id
_citation_journal_full
_citation_year
_citation_journal_volume
_citation_page_first
_citation_page_last
_citation_journal_id_ASTM
primary 'Zhurnal Neorganicheskoi Khimii' 2005 50 667 677 ZNOKAQ
loop_
_publ_author_name
'Pleskov, M.Yu.'
'Morozov, V.A.'
'Lazoryak, B.I.'
'Zhizhin, M.G.'
'Burdakova, I.B.'
'Khal'baeva, K.M.'
'Tsyrenova, G.D.'
'Khaikina, E.G.'
_cell_length_a 5.5437(1)
_cell_length_b 5.5437(1)
_cell_length_c 7.3903(1)
_cell_angle_alpha 90.
_cell_angle_beta 90.
_cell_angle_gamma 120.
_cell_volume 196.69
_cell_formula_units_Z 1
_symmetry_space_group_name_H-M 'P -3 m 1'
_symmetry_Int_Tables_number 164
_refine_ls_R_factor_all 0.0505
loop_
_symmetry_equiv_pos_site_id
_symmetry_equiv_pos_as_xyz
1 'x-y, -y, -z'
2 '-x, -x+y, -z'
3 'y, x, -z'
4 'x-y, x, -z'
5 'y, -x+y, -z'
6 '-x, -y, -z'
7 '-x+y, y, z'
8 'x, x-y, z'
9 '-y, -x, z'
10 '-x+y, -x, z'
11 '-y, x-y, z'
12 'x, y, z'
loop_
_atom_type_symbol
_atom_type_oxidation_number
Tl1+ 1
Al3+ 3
Mo6+ 6
O2- -2
loop_
_atom_site_label
_atom_site_type_symbol
_atom_site_symmetry_multiplicity
_atom_site_Wyckoff_symbol
_atom_site_fract_x
_atom_site_fract_y
_atom_site_fract_z
_atom_site_B_iso_or_equiv
_atom_site_occupancy
_atom_site_attached_hydrogens
Tl1 Tl1+ 1 b 0 0 0.5 2.81(5) 1 0
Al1 Al3+ 1 a 0 0 0 1.61(15) 1 0
Mo1 Mo6+ 2 d 0.3333 0.6667 0.7780(2) 1.39(5) 1 0
O1 O2- 2 d 0.3333 0.6667 0.535(2) 3.9(3) 1 0
O2 O2- 6 i 0.1615(4) -0.1615(4) 0.8529(6) 2.3(1) 1 0
#End of TTdata_250339-ICSD