
#(C) 2017 by FIZ Karlsruhe - Leibniz Institute for Information Infrastructure.  All rights reserved.
data_250756-ICSD
_database_code_ICSD 250756
_audit_creation_date 2015-02-01
_chemical_name_systematic 'Lanthanum zinc plumbide (2/5/1)'
_chemical_formula_structural 'La2 Zn5 Pb'
_chemical_formula_sum 'La2 Pb1 Zn5'
_exptl_crystal_density_diffrn 7.67
_cell_measurement_temperature 200.
_publ_section_title

;
New polar intermetallic phases RE2 Zn5 Tt (RE = La-Nd; Tt = Sn and Pb).
Synthesis, structure, chemical bonding, and magnetic properties
;
loop_
_citation_id
_citation_journal_full
_citation_year
_citation_journal_volume
_citation_page_first
_citation_page_last
_citation_journal_id_ASTM
primary 'Inorganic Chemistry' 2013 52 9102 9110 INOCAJ
loop_
_publ_author_name
'Suen, Nian-Tzu'
'Bobev, Svilen'
_cell_length_a 4.5550(4)
_cell_length_b 16.8373(15)
_cell_length_c 9.1721(8)
_cell_angle_alpha 90.
_cell_angle_beta 90.
_cell_angle_gamma 90.
_cell_volume 703.44
_cell_formula_units_Z 4
_symmetry_space_group_name_H-M 'C m c m'
_symmetry_Int_Tables_number 63
_refine_ls_R_factor_all 0.0251
loop_
_symmetry_equiv_pos_site_id
_symmetry_equiv_pos_as_xyz
1 '-x, y, -z+1/2'
2 '-x, -y, z+1/2'
3 '-x, y, z'
4 '-x, -y, -z'
5 'x, -y, z+1/2'
6 'x, y, -z+1/2'
7 'x, -y, -z'
8 'x, y, z'
9 '-x+1/2, y+1/2, -z+1/2'
10 '-x+1/2, -y+1/2, z+1/2'
11 '-x+1/2, y+1/2, z'
12 '-x+1/2, -y+1/2, -z'
13 'x+1/2, -y+1/2, z+1/2'
14 'x+1/2, y+1/2, -z+1/2'
15 'x+1/2, -y+1/2, -z'
16 'x+1/2, y+1/2, z'
loop_
_atom_type_symbol
_atom_type_oxidation_number
La0+ 0
Pb0+ 0
Zn0+ 0
loop_
_atom_site_label
_atom_site_type_symbol
_atom_site_symmetry_multiplicity
_atom_site_Wyckoff_symbol
_atom_site_fract_x
_atom_site_fract_y
_atom_site_fract_z
_atom_site_B_iso_or_equiv
_atom_site_occupancy
_atom_site_attached_hydrogens
La1 La0+ 4 c 0. 0.79410(5) 0.25 0.00661(19) 1 0
La2 La0+ 4 a 0. 0. 0. 0.0106(2) 1 0
Pb1 Pb0+ 4 c 0. 0.44414(3) 0.25 0.01159(18) 1 0
Zn1 Zn0+ 8 f 0. 0.18537(8) 0.10849(14) 0.0108(3) 1 0
Zn2 Zn0+ 8 f 0. 0.34295(8) 0.01388(14) 0.0109(3) 1 0
Zn3 Zn0+ 4 c 0. 0.60411(12) 0.25 0.0159(4) 1 0
loop_
_atom_site_aniso_label
_atom_site_aniso_type_symbol
_atom_site_aniso_U_11
_atom_site_aniso_U_22
_atom_site_aniso_U_33
_atom_site_aniso_U_12
_atom_site_aniso_U_13
_atom_site_aniso_U_23
La1 La0+ 0.0059(4) 0.0064(4) 0.0076(4) 0. 0. 0.
La2 La0+ 0.0086(4) 0.0099(4) 0.0133(4) 0. 0. 0.0051(3)
Pb1 Pb0+ 0.0127(3) 0.0103(3) 0.0117(3) 0. 0. 0.
Zn1 Zn0+ 0.0089(5) 0.0126(6) 0.0108(6) 0. 0. -0.0041(5)
Zn2 Zn0+ 0.0090(6) 0.0137(6) 0.0100(6) 0. 0. -0.0006(4)
Zn3 Zn0+ 0.0249(11) 0.0122(9) 0.0106(8) 0. 0. 0.
#End of TTdata_250756-ICSD