
data_251064-ICSD
_database_code_ICSD 251064
_audit_creation_date 2015-02-01
_chemical_name_systematic 'Disilver tellurium tris(vanadiumdisulfide) - alpha'
_chemical_formula_structural 'Ag2 Te (V S2)3'
_chemical_formula_sum 'Ag2 S6 Te1 V3'
_exptl_crystal_density_diffrn 5.37
_cell_measurement_temperature 293.
_cell_length_a 5.5347(8)
_cell_length_b 5.5347(8)
_cell_length_c 8.0248(16)
_cell_angle_alpha 90.
_cell_angle_beta 90.
_cell_angle_gamma 120.
_cell_volume 212.88
_cell_formula_units_Z 1
_symmetry_space_group_name_H-M 'P -6 2 m'
_symmetry_Int_Tables_number 189
_refine_ls_R_factor_all 0.0478
loop_
_symmetry_equiv_pos_site_id
_symmetry_equiv_pos_as_xyz
1 '-x, -x+y, -z'
2 'x-y, -y, -z'
3 'y, x, -z'
4 '-x, -x+y, z'
5 'x-y, -y, z'
6 'y, x, z'
7 '-x+y, -x, -z'
8 '-y, x-y, -z'
9 'x, y, -z'
10 '-x+y, -x, z'
11 '-y, x-y, z'
12 'x, y, z'
loop_
_atom_type_symbol
_atom_type_oxidation_number
Te2- -2
Ag1+ 1
V4+ 4
S2- -2
loop_
_atom_site_label
_atom_site_type_symbol
_atom_site_symmetry_multiplicity
_atom_site_Wyckoff_symbol
_atom_site_fract_x
_atom_site_fract_y
_atom_site_fract_z
_atom_site_B_iso_or_equiv
_atom_site_occupancy
_atom_site_attached_hydrogens
Te1 Te2- 1 a 0. 0. 0. 0.0119(3) 1 0
Ag1 Ag1+ 2 c 0.3333 0.6667 0. 0.0462(5) 1 0
V1 V4+ 3 g 0.3409(3) 0. 0.5 0.0070(3) 1 0
S1 S2- 4 h 0.6667 0.3333 0.3153(2) 0.0079(3) 1 0
S2 S2- 2 e 0. 0. 0.3254(3) 0.0078(4) 1 0
loop_
_atom_site_aniso_label
_atom_site_aniso_type_symbol
_atom_site_aniso_U_11
_atom_site_aniso_U_22
_atom_site_aniso_U_33
_atom_site_aniso_U_12
_atom_site_aniso_U_13
_atom_site_aniso_U_23
Te1 Te2- 0.0126(3) 0.0126(3) 0.0106(4) 0.00630(15) 0. 0.
Ag1 Ag1+ 0.0640(7) 0.0640(7) 0.0106(4) 0.0320(4) 0. 0.
V1 V4+ 0.0079(4) 0.0061(5) 0.0064(5) 0.0030(3) 0. 0.
S1 S2- 0.0083(4) 0.0083(4) 0.0069(6) 0.00417(19) 0. 0.
S2 S2- 0.0080(5) 0.0080(5) 0.0072(8) 0.0040(2) 0. 0.
