
#(C) 2017 by FIZ Karlsruhe - Leibniz Institute for Information Infrastructure.  All rights reserved.
data_251170-ICSD
_database_code_ICSD 251170
_audit_creation_date 2015-02-01
_chemical_name_systematic 'Strontium cobalt oxide chloride (3/2/4/2)'
_chemical_formula_structural 'Sr3 Co2 O4 Cl2'
_chemical_formula_sum 'Cl2 Co2 O4 Sr3'
_chemical_name_structure_type Ca3Cu2O4Cl2
_exptl_crystal_density_diffrn 4.79
_cell_measurement_temperature 298.
_publ_section_title

;
Structure and Magnetism of Sr3Co2O4Cl2 - an electronically driven lattice
distortion in an oxychloride containing square planar CoII centers
;
loop_
_citation_id
_citation_journal_full
_citation_year
_citation_journal_volume
_citation_page_first
_citation_page_last
_citation_journal_id_ASTM
primary 'Journal of the American Chemical Society' 2012 134 15946 15952 JACSAT
loop_
_publ_author_name
'Romero, Fabio Denis'
'Coyle, Lucy'
'Hayward, Michael A.'
_cell_length_a 4.007(1)
_cell_length_b 4.007(1)
_cell_length_c 22.282(8)
_cell_angle_alpha 90.
_cell_angle_beta 90.
_cell_angle_gamma 90.
_cell_volume 357.76
_cell_formula_units_Z 2
_symmetry_space_group_name_H-M 'I 4/m m m'
_symmetry_Int_Tables_number 139
_refine_ls_R_factor_all 0.009
loop_
_symmetry_equiv_pos_site_id
_symmetry_equiv_pos_as_xyz
1 'y, x, -z'
2 '-y, -x, -z'
3 '-y, x, -z'
4 'y, -x, -z'
5 '-x, y, -z'
6 'x, -y, -z'
7 'x, y, -z'
8 '-x, -y, -z'
9 '-y, -x, z'
10 'y, x, z'
11 'y, -x, z'
12 '-y, x, z'
13 'x, -y, z'
14 '-x, y, z'
15 '-x, -y, z'
16 'x, y, z'
17 'y+1/2, x+1/2, -z+1/2'
18 '-y+1/2, -x+1/2, -z+1/2'
19 '-y+1/2, x+1/2, -z+1/2'
20 'y+1/2, -x+1/2, -z+1/2'
21 '-x+1/2, y+1/2, -z+1/2'
22 'x+1/2, -y+1/2, -z+1/2'
23 'x+1/2, y+1/2, -z+1/2'
24 '-x+1/2, -y+1/2, -z+1/2'
25 '-y+1/2, -x+1/2, z+1/2'
26 'y+1/2, x+1/2, z+1/2'
27 'y+1/2, -x+1/2, z+1/2'
28 '-y+1/2, x+1/2, z+1/2'
29 'x+1/2, -y+1/2, z+1/2'
30 '-x+1/2, y+1/2, z+1/2'
31 '-x+1/2, -y+1/2, z+1/2'
32 'x+1/2, y+1/2, z+1/2'
loop_
_atom_type_symbol
_atom_type_oxidation_number
Sr2+ 2
Co2+ 2
O2- -2
Cl1- -1
loop_
_atom_site_label
_atom_site_type_symbol
_atom_site_symmetry_multiplicity
_atom_site_Wyckoff_symbol
_atom_site_fract_x
_atom_site_fract_y
_atom_site_fract_z
_atom_site_B_iso_or_equiv
_atom_site_occupancy
_atom_site_attached_hydrogens
Sr1 Sr2+ 2 a 0 0 0 0.0033(7) 1. 0
Sr2 Sr2+ 4 e 0 0 0.1526(1) 0.0038(5) 1. 0
Co1 Co2+ 4 e 0 0 0.4284(4) 0.0085(8) 1. 0
O1 O2- 8 g 0.5 0 0.0766(1) 0.0161(3) 1. 0
Cl1 Cl1- 4 e 0 0 0.2960(1) 0.0202(4) 1. 0
#End of TTdata_251170-ICSD