
#(C) 2017 by FIZ Karlsruhe - Leibniz Institute for Information Infrastructure.  All rights reserved.
data_251583-ICSD
_database_code_ICSD 251583
_audit_creation_date 2015-08-01
_chemical_name_systematic 'Barium germanide (1/6)'
_chemical_formula_structural 'Ba Ge6'
_chemical_formula_sum 'Ba1 Ge6'
_chemical_name_structure_type Eu4Ga8Ge16
_exptl_crystal_density_diffrn 5.98
_cell_measurement_temperature 293.
_publ_section_title
'BaGe6 and BaGe6-x: incommensurately ordered vacancies as electron traps'
loop_
_citation_id
_citation_journal_full
_citation_year
_citation_journal_volume
_citation_page_first
_citation_page_last
_citation_journal_id_ASTM
primary 'Inorganic Chemistry' 2014 53 12699 12705 INOCAJ
loop_
_publ_author_name
'Akselrud, Lev'
'Wosylus, Aron'
'Castillo, Rodrigo'
'Aydemir, Umut'
'Prots, Yurii'
'Schnelle, Walter'
'Grin, Yuri'
'Schwarz, Ulrich'
_cell_length_a 4.7690(7)
_cell_length_b 10.777(2)
_cell_length_c 12.385(2)
_cell_angle_alpha 90
_cell_angle_beta 90
_cell_angle_gamma 90
_cell_volume 636.53
_cell_formula_units_Z 4
_symmetry_space_group_name_H-M 'C m c m'
_symmetry_Int_Tables_number 63
_refine_ls_R_factor_all 0.0286
loop_
_symmetry_equiv_pos_site_id
_symmetry_equiv_pos_as_xyz
1 '-x, y, -z+1/2'
2 '-x, -y, z+1/2'
3 '-x, y, z'
4 '-x, -y, -z'
5 'x, -y, z+1/2'
6 'x, y, -z+1/2'
7 'x, -y, -z'
8 'x, y, z'
9 '-x+1/2, y+1/2, -z+1/2'
10 '-x+1/2, -y+1/2, z+1/2'
11 '-x+1/2, y+1/2, z'
12 '-x+1/2, -y+1/2, -z'
13 'x+1/2, -y+1/2, z+1/2'
14 'x+1/2, y+1/2, -z+1/2'
15 'x+1/2, -y+1/2, -z'
16 'x+1/2, y+1/2, z'
loop_
_atom_type_symbol
_atom_type_oxidation_number
Ba0+ 0
Ge0+ 0
loop_
_atom_site_label
_atom_site_type_symbol
_atom_site_symmetry_multiplicity
_atom_site_Wyckoff_symbol
_atom_site_fract_x
_atom_site_fract_y
_atom_site_fract_z
_atom_site_B_iso_or_equiv
_atom_site_occupancy
_atom_site_attached_hydrogens
Ba1 Ba0+ 4 c 0 0.2696(18) 0.25 0.014(5) 1 0
Ge1 Ge0+ 8 f 0 0.249(3) 0.5357(13) 0.017(3) 1 0
Ge2 Ge0+ 8 f 0 0.446(2) 0.6440(16) 0.017(3) 1 0
Ge3 Ge0+ 8 f 0 0.0234(18) 0.598(2) 0.017(3) 1 0
#End of TTdata_251583-ICSD