
#(C) 2017 by FIZ Karlsruhe - Leibniz Institute for Information Infrastructure.  All rights reserved.
data_251686-ICSD
_database_code_ICSD 251686
_audit_creation_date 2016-02-01
_chemical_name_systematic 'Lanthanum gold antimonide (1/1/1)'
_chemical_formula_structural 'La Au Sb'
_chemical_formula_sum 'Au1 La1 Sb1'
_chemical_name_structure_type YPtAs
_exptl_crystal_density_diffrn 9.69
_cell_measurement_temperature 298.
_publ_section_title

;
Gold-gold bonding: the key to stabilizing the 19-electron ternary phases
LnAuSb (Ln = La-Nd and Sm)
;
loop_
_citation_id
_citation_journal_full
_citation_year
_citation_journal_volume
_citation_page_first
_citation_page_last
_citation_journal_id_ASTM
primary 'Journal of the American Chemical Society' 2015 137 1282 1289 JACSAT
loop_
_publ_author_name
'Seibel, Elizabeth M.'
'Schoop, Leslie M.'
'Xie, Weiwei'
'Gibson, Quinn D.'
'Webb, James B.'
'Fuccillo, Michael K.'
'Krizan, Jason W.'
'Cava, Robert J.'
_cell_length_a 4.63836(6)
_cell_length_b 4.63836(6)
_cell_length_c 16.8315(4)
_cell_angle_alpha 90.
_cell_angle_beta 90.
_cell_angle_gamma 120.
_cell_volume 313.61
_cell_formula_units_Z 4
_symmetry_space_group_name_H-M 'P 63/m m c'
_symmetry_Int_Tables_number 194
_refine_ls_R_factor_all 0.139
loop_
_symmetry_equiv_pos_site_id
_symmetry_equiv_pos_as_xyz
1 'x, x-y, -z+1/2'
2 '-x+y, y, -z+1/2'
3 '-y, -x, -z+1/2'
4 '-x+y, -x, -z+1/2'
5 '-y, x-y, -z+1/2'
6 'x, y, -z+1/2'
7 '-x, -x+y, z+1/2'
8 'x-y, -y, z+1/2'
9 'y, x, z+1/2'
10 'x-y, x, z+1/2'
11 'y, -x+y, z+1/2'
12 '-x, -y, z+1/2'
13 '-x, -x+y, -z'
14 'x-y, -y, -z'
15 'y, x, -z'
16 'x-y, x, -z'
17 'y, -x+y, -z'
18 '-x, -y, -z'
19 'x, x-y, z'
20 '-x+y, y, z'
21 '-y, -x, z'
22 '-x+y, -x, z'
23 '-y, x-y, z'
24 'x, y, z'
loop_
_atom_type_symbol
_atom_type_oxidation_number
La0+ 0
Au0+ 0
Sb0+ 0
loop_
_atom_site_label
_atom_site_type_symbol
_atom_site_symmetry_multiplicity
_atom_site_Wyckoff_symbol
_atom_site_fract_x
_atom_site_fract_y
_atom_site_fract_z
_atom_site_B_iso_or_equiv
_atom_site_occupancy
_atom_site_attached_hydrogens
La1 La0+ 2 a 0 0 0 0.86(6) 1. 0
La2 La0+ 2 b 0 0 0.25 0.86(6) 1. 0
Au1 Au0+ 4 f 0.6667 0.3333 0.1572(1) 1.34(4) 1. 0
Sb1 Sb0+ 4 f 0.3333 0.6667 0.1127(2) 0.78(7) 1. 0
#End of TTdata_251686-ICSD