
data_251820-ICSD
_database_code_ICSD 251820
_audit_creation_date 2016-02-01
_chemical_name_systematic 'Calcium iron oxysulfide'
_chemical_formula_structural 'Ca O Fe S'
_chemical_formula_sum 'Ca1 Fe1 O1 S1'
_chemical_name_structure_type SiC(4H)
_exptl_crystal_density_diffrn 3.46
_cell_measurement_temperature 293.
_cell_length_a 3.7519(2)
_cell_length_b 3.7519(2)
_cell_length_c 11.3490(10)
_cell_angle_alpha 90
_cell_angle_beta 90
_cell_angle_gamma 120
_cell_volume 138.35
_cell_formula_units_Z 2
_symmetry_space_group_name_H-M 'P 63 m c'
_symmetry_Int_Tables_number 186
_refine_ls_R_factor_all 0.0258
loop_
_symmetry_equiv_pos_site_id
_symmetry_equiv_pos_as_xyz
1 '-x, -x+y, z+1/2'
2 'x-y, -y, z+1/2'
3 'y, x, z+1/2'
4 'x-y, x, z+1/2'
5 'y, -x+y, z+1/2'
6 '-x, -y, z+1/2'
7 'x, x-y, z'
8 '-x+y, y, z'
9 '-y, -x, z'
10 '-x+y, -x, z'
11 '-y, x-y, z'
12 'x, y, z'
loop_
_atom_type_symbol
_atom_type_oxidation_number
Fe2+ 2
Ca2+ 2
S2- -2
O2- -2
loop_
_atom_site_label
_atom_site_type_symbol
_atom_site_symmetry_multiplicity
_atom_site_Wyckoff_symbol
_atom_site_fract_x
_atom_site_fract_y
_atom_site_fract_z
_atom_site_B_iso_or_equiv
_atom_site_occupancy
_atom_site_attached_hydrogens
Fe1 Fe2+ 2 a 0 0 0.44016(8) 0.01151(17) 1 0
Ca1 Ca2+ 2 b -0.666667 0.666667 0.70707(10) 0.00909(17) 1 0
S1 S2- 2 b -0.333333 0.333333 0.52821(12) 0.0094(3) 1 0
O1 O2- 2 a 0 0 0.2756(4) 0.0089(7) 1 0
loop_
_atom_site_aniso_label
_atom_site_aniso_type_symbol
_atom_site_aniso_U_11
_atom_site_aniso_U_22
_atom_site_aniso_U_33
_atom_site_aniso_U_12
_atom_site_aniso_U_13
_atom_site_aniso_U_23
Fe1 Fe2+ 0.0137(2) 0.0137(2) 0.0072(3) 0.00684(11) 0 0
Ca1 Ca2+ 0.0071(2) 0.0071(2) 0.0131(3) 0.00355(10) 0 0
S1 S2- 0.0082(4) 0.0082(4) 0.0120(5) 0.00408(18) 0 0
O1 O2- 0.0099(8) 0.0099(8) 0.0070(16) 0.0049(4) 0 0
