
#(C) 2017 by FIZ Karlsruhe - Leibniz Institute for Information Infrastructure.  All rights reserved.
data_251834-ICSD
_database_code_ICSD 251834
_audit_creation_date 2016-02-01
_chemical_name_systematic 'Lanthanum osmium aluminium boride (1/2/2/1)'
_chemical_formula_structural 'La Os2 Al2 B'
_chemical_formula_sum 'Al2 B1 La1 Os2'
_chemical_name_structure_type PrCr2Si2C
_exptl_crystal_density_diffrn 9.73
_cell_measurement_temperature 298.
_publ_section_title

;
Crystal growth, structures, and properties of the complex borides, LaOs2Al2B
and La2Os2AlB2
;
loop_
_citation_id
_citation_journal_full
_citation_year
_citation_journal_volume
_citation_page_first
_citation_page_last
_citation_journal_id_ASTM
primary 'Inorganic Chemistry' 2015 54 8049 8057 INOCAJ
loop_
_publ_author_name
'Bugaris, Daniel E.'
'Han, Fei'
'Im, Jino'
'Chung, Duck Young'
'Freeman, Arthur J.'
'Kanatzidis, Mercouri G.'
_cell_length_a 4.2075(6)
_cell_length_b 4.2075(6)
_cell_length_c 5.6339(11)
_cell_angle_alpha 90.
_cell_angle_beta 90.
_cell_angle_gamma 90.
_cell_volume 99.73
_cell_formula_units_Z 1
_symmetry_space_group_name_H-M 'P 4/m m m'
_symmetry_Int_Tables_number 123
_refine_ls_R_factor_all 0.0384
loop_
_symmetry_equiv_pos_site_id
_symmetry_equiv_pos_as_xyz
1 'y, x, -z'
2 '-y, -x, -z'
3 '-y, x, -z'
4 'y, -x, -z'
5 '-x, y, -z'
6 'x, -y, -z'
7 'x, y, -z'
8 '-x, -y, -z'
9 '-y, -x, z'
10 'y, x, z'
11 'y, -x, z'
12 '-y, x, z'
13 'x, -y, z'
14 '-x, y, z'
15 '-x, -y, z'
16 'x, y, z'
loop_
_atom_type_symbol
_atom_type_oxidation_number
La0+ 0
Os0+ 0
Al0+ 0
B0+ 0
loop_
_atom_site_label
_atom_site_type_symbol
_atom_site_symmetry_multiplicity
_atom_site_Wyckoff_symbol
_atom_site_fract_x
_atom_site_fract_y
_atom_site_fract_z
_atom_site_B_iso_or_equiv
_atom_site_occupancy
_atom_site_attached_hydrogens
La1 La0+ 1 b 0. 0. 0.5 0.0108(8) 1 0
Os1 Os0+ 2 f 0. 0.5 0. 0.0096(8) 1 0
Al1 Al0+ 2 h 0.5 0.5 0.2614(14) 0.0111(16) 1 0
B1 B0+ 1 a 0. 0. 0. 0.010(7) 1 0
loop_
_atom_site_aniso_label
_atom_site_aniso_type_symbol
_atom_site_aniso_U_11
_atom_site_aniso_U_22
_atom_site_aniso_U_33
_atom_site_aniso_U_12
_atom_site_aniso_U_13
_atom_site_aniso_U_23
La1 La0+ 0.0081(9) 0.0081(9) 0.0161(12) 0. 0. 0.
Os1 Os0+ 0.0060(9) 0.0062(9) 0.0167(10) 0. 0. 0.
Al1 Al0+ 0.011(2) 0.011(2) 0.012(3) 0. 0. 0.
B1 B0+ 0.008(10) 0.008(10) 0.015(16) 0. 0. 0.
#End of TTdata_251834-ICSD