
#(C) 2017 by FIZ Karlsruhe - Leibniz Institute for Information Infrastructure.  All rights reserved.
data_252029-ICSD
_database_code_ICSD 252029
_audit_creation_date 2016-02-01
_chemical_name_systematic 'Cadmium tungstate(VI)'
_chemical_formula_structural 'Cd W O4'
_chemical_formula_sum 'Cd1 O4 W1'
_chemical_name_structure_type Wolframite-NiWO4
_exptl_crystal_density_diffrn 8.
_publ_section_title

;
Design and synthesis of CdWO4:Sb3+ phosphor based on sp energy level
regularities of Sb3+ Ion
;
loop_
_citation_id
_citation_journal_full
_citation_year
_citation_journal_volume
_citation_page_first
_citation_page_last
_citation_journal_id_ASTM
primary 'Journal of the American Ceramic Society' 2015 98 2146 2152 JACTAW
loop_
_publ_author_name
'Wang, Lili'
'Li, Huibin'
'Guo, Yunhua'
'Jiang, Haiyan'
'Wang, Qiang'
'Ren, Chunyan'
'Shi, Jinsheng'
_cell_length_a 5.0304
_cell_length_b 5.8606
_cell_length_c 5.0761
_cell_angle_alpha 90
_cell_angle_beta 91.5025
_cell_angle_gamma 90
_cell_volume 149.6
_cell_formula_units_Z 2
_symmetry_space_group_name_H-M 'P 1 2/c 1'
_symmetry_Int_Tables_number 13
_refine_ls_R_factor_all 0.1465
loop_
_symmetry_equiv_pos_site_id
_symmetry_equiv_pos_as_xyz
1 'x, -y, z+1/2'
2 '-x, -y, -z'
3 '-x, y, -z+1/2'
4 'x, y, z'
loop_
_atom_type_symbol
_atom_type_oxidation_number
Cd2+ 2
W6+ 6
O2- -2
loop_
_atom_site_label
_atom_site_type_symbol
_atom_site_symmetry_multiplicity
_atom_site_Wyckoff_symbol
_atom_site_fract_x
_atom_site_fract_y
_atom_site_fract_z
_atom_site_B_iso_or_equiv
_atom_site_occupancy
_atom_site_attached_hydrogens
Cd1 Cd2+ 2 f 0.5 0.69729 0.25 0.00523 1. 0
W1 W6+ 2 e 0 0.17855 0.25 0.0082 1. 0
O1 O2- 4 g 0.2018 0.0955 -0.0496 0.0083 1. 0
O2 O2- 4 g 0.242 0.3703 0.3839 0.0098 1. 0
#End of TTdata_252029-ICSD