
#(C) 2017 by FIZ Karlsruhe - Leibniz Institute for Information Infrastructure.  All rights reserved.
data_252376-ICSD
_database_code_ICSD 252376
_audit_creation_date 2016-08-01
_chemical_name_systematic 'Molybdenum sulfide (6/8)'
_chemical_formula_structural 'Mo6 S8'
_chemical_formula_sum 'Mo6 S8'
_chemical_name_structure_type Mo3Se4
_exptl_crystal_density_diffrn 5.21
_cell_measurement_temperature 295.
_publ_section_title

;
Electrochemical zinc-ion intercalation properties and crystal structures of
ZnMo6S8 and Zn2Mo6S8 chevrel phases in aqueous electrolytes
;
loop_
_citation_id
_citation_journal_full
_citation_year
_citation_journal_volume
_citation_page_first
_citation_page_last
_citation_journal_id_ASTM
primary 'Inorganic Chemistry' 2016 55 3294 3301 INOCAJ
loop_
_publ_author_name
'Chae, Munseok S.'
'Heo, Jongwook W.'
'Lim, Sung-Chul'
'Hong, Seung-Tae'
_cell_length_a 9.1910(6)
_cell_length_b 9.1910(6)
_cell_length_c 10.8785(10)
_cell_angle_alpha 90.
_cell_angle_beta 90.
_cell_angle_gamma 120.
_cell_volume 795.84
_cell_formula_units_Z 3
_symmetry_space_group_name_H-M 'R -3 H'
_symmetry_Int_Tables_number 148
_refine_ls_R_factor_all 0.167
loop_
_symmetry_equiv_pos_site_id
_symmetry_equiv_pos_as_xyz
1 'x-y, x, -z'
2 'y, -x+y, -z'
3 '-x, -y, -z'
4 '-x+y, -x, z'
5 '-y, x-y, z'
6 'x, y, z'
7 'x-y+2/3, x+1/3, -z+1/3'
8 'y+2/3, -x+y+1/3, -z+1/3'
9 '-x+2/3, -y+1/3, -z+1/3'
10 '-x+y+2/3, -x+1/3, z+1/3'
11 '-y+2/3, x-y+1/3, z+1/3'
12 'x+2/3, y+1/3, z+1/3'
13 'x-y+1/3, x+2/3, -z+2/3'
14 'y+1/3, -x+y+2/3, -z+2/3'
15 '-x+1/3, -y+2/3, -z+2/3'
16 '-x+y+1/3, -x+2/3, z+2/3'
17 '-y+1/3, x-y+2/3, z+2/3'
18 'x+1/3, y+2/3, z+2/3'
loop_
_atom_type_symbol
_atom_type_oxidation_number
Mo2+ 2.667
S2- -2
loop_
_atom_site_label
_atom_site_type_symbol
_atom_site_symmetry_multiplicity
_atom_site_Wyckoff_symbol
_atom_site_fract_x
_atom_site_fract_y
_atom_site_fract_z
_atom_site_B_iso_or_equiv
_atom_site_occupancy
_atom_site_attached_hydrogens
Mo1 Mo2+ 18 f 0.8235(5) 0.8358(5) 0.3875(4) 0.004(1) 1. 0
S1 S2- 18 f 0.9568(14) 0.6624(13) 0.4144(9) 0.002(4) 1. 0
S2 S2- 6 c 0 0 0.1993(18) 0.002(7) 1. 0
#End of TTdata_252376-ICSD