
#(C) 2017 by FIZ Karlsruhe - Leibniz Institute for Information Infrastructure.  All rights reserved.
data_2524-ICSD
_database_code_ICSD 2524
_audit_creation_date 1980-01-01
_audit_update_record 2010-02-01
_chemical_name_systematic 'Magnesium sulfate(IV) hexahydrate'
_chemical_formula_structural 'Mg (S O3) (H2 O)6'
_chemical_formula_sum 'H12 Mg1 O9 S1'
_chemical_name_structure_type MgSO3(H2O)6
_exptl_crystal_density_diffrn 1.73
_publ_section_title

;
Etude de la structure cristalline du sulfite de magnesium hexahydrate, Mg S O3
(H2 O)6
;
loop_
_citation_id
_citation_journal_full
_citation_year
_citation_journal_volume
_citation_page_first
_citation_page_last
_citation_journal_id_ASTM
primary 'Acta Crystallographica B (24,1968-38,1982)' 1973 29 656 658 ACBCAR
loop_
_publ_author_name
'Flack, H.D.'
_cell_length_a 8.830(1)
_cell_length_b 8.830(1)
_cell_length_c 9.075(1)
_cell_angle_alpha 90.
_cell_angle_beta 90.
_cell_angle_gamma 120.
_cell_volume 612.77
_cell_formula_units_Z 3
_symmetry_space_group_name_H-M 'R 3 H'
_symmetry_Int_Tables_number 146
_refine_ls_R_factor_all 0.059
loop_
_symmetry_equiv_pos_site_id
_symmetry_equiv_pos_as_xyz
1 '-x+y, -x, z'
2 '-y, x-y, z'
3 'x, y, z'
4 '-x+y+2/3, -x+1/3, z+1/3'
5 '-y+2/3, x-y+1/3, z+1/3'
6 'x+2/3, y+1/3, z+1/3'
7 '-x+y+1/3, -x+2/3, z+2/3'
8 '-y+1/3, x-y+2/3, z+2/3'
9 'x+1/3, y+2/3, z+2/3'
loop_
_atom_type_symbol
_atom_type_oxidation_number
Mg2+ 2
S4+ 4
O2- -2
H1+ 1
loop_
_atom_site_label
_atom_site_type_symbol
_atom_site_symmetry_multiplicity
_atom_site_Wyckoff_symbol
_atom_site_fract_x
_atom_site_fract_y
_atom_site_fract_z
_atom_site_B_iso_or_equiv
_atom_site_occupancy
_atom_site_attached_hydrogens
Mg1 Mg2+ 3 a 0 0 0 . 1. 0
S1 S4+ 3 a 0 0 0.5001(6) . 1. 0
O1 O2- 9 b 0.1271(5) 0.1775(5) 0.4303(6) . 1. 0
O2 O2- 9 b -.1951(6) -.1975(6) -.1249(5) . 1. 0
O3 O2- 9 b 0.1845(4) 0.1931(4) 0.1392(4) . 1. 0
loop_
_atom_site_aniso_label
_atom_site_aniso_type_symbol
_atom_site_aniso_beta_11
_atom_site_aniso_beta_22
_atom_site_aniso_beta_33
_atom_site_aniso_beta_12
_atom_site_aniso_beta_13
_atom_site_aniso_beta_23
Mg1 Mg2+ 0.0048(2) 0.0048(2) 0.0061(4) 0.0024(1) 0 0
S1 S4+ 0.0067(2) 0.0067(2) 0.0055(3) 0.0034(1) 0 0
O1 O2- 0.0063(6) 0.0051(5) 0.0111(6) 0.0024(4) -.0019(6) -.0009(6)
O2 O2- 0.0123(7) 0.0126(7) 0.0084(6) 0.0099(4) -.0011(6) -.0028(7)
O3 O2- 0.0043(5) 0.0050(5) 0.0094(6) -.0001(4) -.0044(5) -.0022(5)
#End of TTdata_2524-ICSD