
#(C) 2017 by FIZ Karlsruhe - Leibniz Institute for Information Infrastructure.  All rights reserved.
data_252839-ICSD
_database_code_ICSD 252839
_audit_creation_date 2017-08-01
_chemical_name_systematic 'Titanium tin carbide (3/1/2)'
_chemical_formula_structural 'Ti3 Sn C2'
_chemical_formula_sum 'C2 Sn1 Ti3'
_chemical_name_structure_type Ti3C2Si
_exptl_crystal_density_diffrn 6.
_publ_section_title

;
High-temperature neutron diffraction, Raman spectroscopy, and first-principles
calculations of Ti3SnC2 and Ti2SnC
;
loop_
_citation_id
_citation_journal_full
_citation_year
_citation_journal_volume
_citation_page_first
_citation_page_last
_citation_journal_id_ASTM
primary 'Journal of the American Ceramic Society' 2016 99 2233 2242 JACTAW
loop_
_publ_author_name
'Bentzel, Grady W.'
'Naguib, Michael'
'Lane, Nina J.'
'Vogel, Sven C.'
'Presser, Volker'
'Dubois, Sylvain'
'Lu, Jun'
'Hultman, Lars'
'Barsoum, Michel W.'
'Caspi, El'ad N.'
_cell_length_a 3.13543(6)
_cell_length_b 3.13543(6)
_cell_length_c 18.6074(5)
_cell_angle_alpha 90.
_cell_angle_beta 90.
_cell_angle_gamma 120.
_cell_volume 158.42
_cell_formula_units_Z 2
_symmetry_space_group_name_H-M 'P 63/m m c'
_symmetry_Int_Tables_number 194
loop_
_symmetry_equiv_pos_site_id
_symmetry_equiv_pos_as_xyz
1 'x, x-y, -z+1/2'
2 '-x+y, y, -z+1/2'
3 '-y, -x, -z+1/2'
4 '-x+y, -x, -z+1/2'
5 '-y, x-y, -z+1/2'
6 'x, y, -z+1/2'
7 '-x, -x+y, z+1/2'
8 'x-y, -y, z+1/2'
9 'y, x, z+1/2'
10 'x-y, x, z+1/2'
11 'y, -x+y, z+1/2'
12 '-x, -y, z+1/2'
13 '-x, -x+y, -z'
14 'x-y, -y, -z'
15 'y, x, -z'
16 'x-y, x, -z'
17 'y, -x+y, -z'
18 '-x, -y, -z'
19 'x, x-y, z'
20 '-x+y, y, z'
21 '-y, -x, z'
22 '-x+y, -x, z'
23 '-y, x-y, z'
24 'x, y, z'
loop_
_atom_type_symbol
_atom_type_oxidation_number
Ti0+ 0
Sn0+ 0
C0+ 0
loop_
_atom_site_label
_atom_site_type_symbol
_atom_site_symmetry_multiplicity
_atom_site_Wyckoff_symbol
_atom_site_fract_x
_atom_site_fract_y
_atom_site_fract_z
_atom_site_B_iso_or_equiv
_atom_site_occupancy
_atom_site_attached_hydrogens
Ti1 Ti0+ 2 a 0 0 0 . 1. 0
Ti2 Ti0+ 4 f 0.3333 0.6667 0.1224(2) . 1. 0
Sn1 Sn0+ 2 b 0 0 0.25 . 1. 0
C1 C0+ 4 f 0.6667 0.3333 0.0577(7) . 1. 0
#End of TTdata_252839-ICSD