
#(C) 2017 by FIZ Karlsruhe - Leibniz Institute for Information Infrastructure.  All rights reserved.
data_252988-ICSD
_database_code_ICSD 252988
_audit_creation_date 2017-08-01
_chemical_name_systematic 'Palladium silver telluride (14/2/9)'
_chemical_formula_structural 'Pd14 Ag2 Te9'
_chemical_formula_sum 'Ag2 Pd14 Te9'
_chemical_name_mineral Lukkulaisvaaraite
_exptl_crystal_density_diffrn 9.99
_publ_section_title

;
Lukkulaisvaaraite, Pd14 Ag2 Te9, a new mineral from Lukkulaisvaara intrusion,
northern Russian Karelia, Russia
;
loop_
_citation_id
_citation_journal_full
_citation_year
_citation_journal_volume
_citation_page_first
_citation_page_last
_citation_journal_id_ASTM
primary 'Mineralogical Magazine (1969-)' 2014 78 1743 1754 MNLMBB
loop_
_publ_author_name
'Vymazalova, A.'
'Grokhovskaya, T.L.'
'Laufek, F.'
'Rassulov, V.A.'
_cell_length_a 8.9599(6)
_cell_length_b 8.9599(6)
_cell_length_c 11.822(1)
_cell_angle_alpha 90.
_cell_angle_beta 90.
_cell_angle_gamma 90.
_cell_volume 949.06
_cell_formula_units_Z 2
_symmetry_space_group_name_H-M 'I 4/m'
_symmetry_Int_Tables_number 87
_refine_ls_R_factor_all 0.026
loop_
_symmetry_equiv_pos_site_id
_symmetry_equiv_pos_as_xyz
1 '-y, x, -z'
2 'y, -x, -z'
3 'x, y, -z'
4 '-x, -y, -z'
5 'y, -x, z'
6 '-y, x, z'
7 '-x, -y, z'
8 'x, y, z'
9 '-y+1/2, x+1/2, -z+1/2'
10 'y+1/2, -x+1/2, -z+1/2'
11 'x+1/2, y+1/2, -z+1/2'
12 '-x+1/2, -y+1/2, -z+1/2'
13 'y+1/2, -x+1/2, z+1/2'
14 '-y+1/2, x+1/2, z+1/2'
15 '-x+1/2, -y+1/2, z+1/2'
16 'x+1/2, y+1/2, z+1/2'
loop_
_atom_type_symbol
_atom_type_oxidation_number
Te0+ 0
Pd0+ 0
Ag0+ 0
loop_
_atom_site_label
_atom_site_type_symbol
_atom_site_symmetry_multiplicity
_atom_site_Wyckoff_symbol
_atom_site_fract_x
_atom_site_fract_y
_atom_site_fract_z
_atom_site_B_iso_or_equiv
_atom_site_occupancy
_atom_site_attached_hydrogens
Te1 Te0+ 2 a 0.5 0.5 0.5 0.8(1) 1. 0
Te2 Te0+ 16 i 0.6262(2) 0.1880(3) 0.1480(2) 0.70(5) 1. 0
Pd1 Pd0+ 8 h 0.7051(4) 0.4068(3) 0. 0.60(7) 1. 0
Pd2 Pd0+ 16 i 0.5718(3) 0.2790(2) 0.3616(2) 0.65(5) 1. 0
Pd3 Pd0+ 4 c 0.5 0. 0. 0.8(1) 1. 0
Ag1 Ag0+ 4 e 0.5 0.5 0.1919(4) 0.8(1) 1. 0
#End of TTdata_252988-ICSD