
#(C) 2017 by FIZ Karlsruhe - Leibniz Institute for Information Infrastructure.  All rights reserved.
data_253358-ICSD
_database_code_ICSD 253358
_audit_creation_date 2017-08-01
_chemical_name_systematic 'Yttrium rhodium germanide (1/1/2)'
_chemical_formula_structural 'Y Rh Ge2'
_chemical_formula_sum 'Ge2 Rh1 Y1'
_chemical_name_structure_type YIrGe2
_exptl_crystal_density_diffrn 7.47
_publ_section_title

;
Ternary germanides RERhGe2 (RE = Y, Gd-Ho) - New representatives of the YIrGe2
type
;
_publ_section_comment 'Cell and Type only determined'
loop_
_citation_id
_citation_journal_full
_citation_year
_citation_journal_volume
_citation_page_first
_citation_page_last
_citation_journal_id_ASTM
primary 'Journal of Solid State Chemistry' 2016 243 276 281 JSSCBI
loop_
_publ_author_name
'Vosswinkel, Daniel'
'Heletta, Lukas'
'Hoffmann, Rolf-Dieter'
'Poettgen, Rainer'
_cell_length_a 4.2677(6)
_cell_length_b 8.848(1)
_cell_length_c 15.795(2)
_cell_angle_alpha 90
_cell_angle_beta 90
_cell_angle_gamma 90
_cell_volume 596.43
_cell_formula_units_Z 8
_symmetry_space_group_name_H-M 'I m m m'
_symmetry_Int_Tables_number 71
loop_
_symmetry_equiv_pos_site_id
_symmetry_equiv_pos_as_xyz
1 'x, y, -z'
2 'x, -y, z'
3 '-x, y, z'
4 '-x, -y, -z'
5 '-x, -y, z'
6 '-x, y, -z'
7 'x, -y, -z'
8 'x, y, z'
9 'x+1/2, y+1/2, -z+1/2'
10 'x+1/2, -y+1/2, z+1/2'
11 '-x+1/2, y+1/2, z+1/2'
12 '-x+1/2, -y+1/2, -z+1/2'
13 '-x+1/2, -y+1/2, z+1/2'
14 '-x+1/2, y+1/2, -z+1/2'
15 'x+1/2, -y+1/2, -z+1/2'
16 'x+1/2, y+1/2, z+1/2'
loop_
_atom_type_symbol
_atom_type_oxidation_number
Y3+ 3
Rh3+ 3
Ge3- -3
loop_
_atom_site_label
_atom_site_type_symbol
_atom_site_symmetry_multiplicity
_atom_site_Wyckoff_symbol
_atom_site_fract_x
_atom_site_fract_y
_atom_site_fract_z
_atom_site_B_iso_or_equiv
_atom_site_occupancy
_atom_site_attached_hydrogens
Y1 Y3+ 4 g 0 0.23 0 . 1 0
Y2 Y3+ 4 i 0 0 0.21 . 1 0
Rh1 Rh3+ 8 l 0 0.25 0.35 . 1 0
Ge1 Ge3- 4 i 0 0 0.42 . 1 0
Ge2 Ge3- 4 j 0.5 0 0.08 . 1 0
Ge3 Ge3- 8 l 0 0.35 0.2 . 1 0
#End of TTdata_253358-ICSD