
#(C) 2017 by FIZ Karlsruhe - Leibniz Institute for Information Infrastructure.  All rights reserved.
data_25351-ICSD
_database_code_ICSD 25351
_audit_creation_date 1980-01-01
_chemical_name_systematic 'Barium germanium (2:1)'
_chemical_formula_structural 'Ba2 Ge'
_chemical_formula_sum 'Ba2 Ge1'
_chemical_name_structure_type TiNiSi-MgSrSi
_exptl_crystal_density_diffrn 5.
_publ_section_title 'Darstellung und Kristallstruktur des Ba2 Ge'
loop_
_citation_id
_citation_journal_full
_citation_year
_citation_journal_volume
_citation_page_first
_citation_page_last
_citation_journal_id_ASTM
primary

;
Zeitschrift fuer Naturforschung, Teil B. Anorganische Chemie, Organische
Chemie (2,1947-32,1977)
; 1973 28 220 222 ZENBAX
loop_
_publ_author_name
'Turban, K.'
'Schaefer, H.'
_cell_length_a 8.38(2)
_cell_length_b 5.48(2)
_cell_length_c 10.04(2)
_cell_angle_alpha 90.
_cell_angle_beta 90.
_cell_angle_gamma 90.
_cell_volume 461.06
_cell_formula_units_Z 4
_symmetry_space_group_name_H-M 'P n m a'
_symmetry_Int_Tables_number 62
_refine_ls_R_factor_all 0.142
loop_
_symmetry_equiv_pos_site_id
_symmetry_equiv_pos_as_xyz
1 'x+1/2, y, -z+1/2'
2 'x, -y+1/2, z'
3 '-x+1/2, y+1/2, z+1/2'
4 '-x, -y, -z'
5 '-x+1/2, -y, z+1/2'
6 '-x, y+1/2, -z'
7 'x+1/2, -y+1/2, -z+1/2'
8 'x, y, z'
loop_
_atom_type_symbol
_atom_type_oxidation_number
Ba2+ 2
Ge4- -4
loop_
_atom_site_label
_atom_site_type_symbol
_atom_site_symmetry_multiplicity
_atom_site_Wyckoff_symbol
_atom_site_fract_x
_atom_site_fract_y
_atom_site_fract_z
_atom_site_B_iso_or_equiv
_atom_site_occupancy
_atom_site_attached_hydrogens
Ba1 Ba2+ 4 c 0.517 0.25 0.677 . 1. 0
Ba2 Ba2+ 4 c 0.653 0.25 0.084 . 1. 0
Ge1 Ge4- 4 c 0.252 0.25 0.097 . 1. 0
#End of TTdata_25351-ICSD