
#(C) 2017 by FIZ Karlsruhe - Leibniz Institute for Information Infrastructure.  All rights reserved.
data_25503-ICSD
_database_code_ICSD 25503
_audit_creation_date 1986-10-20
_audit_update_record 2005-10-01
_chemical_name_systematic 'Niobium iodide'
_chemical_formula_structural 'Nb I5'
_chemical_formula_sum 'I5 Nb1'
_exptl_crystal_density_diffrn 5.29
_publ_section_title 'Darstellung und Kristallstruktur von Niobpentajodid'
loop_
_citation_id
_citation_journal_full
_citation_year
_citation_journal_volume
_citation_page_first
_citation_page_last
_citation_journal_id_ASTM
primary 'Zeitschrift fuer Anorganische und Allgemeine Chemie (1950) (DE)' 1963
325 122 129 ZAACAB
loop_
_publ_author_name
'Littke, W.'
'Brauer, G.'
_cell_length_a 10.58(1)
_cell_length_b 6.58(1)
_cell_length_c 13.88(2)
_cell_angle_alpha 90.
_cell_angle_beta 109.14(1)
_cell_angle_gamma 90.
_cell_volume 912.86
_cell_formula_units_Z 4
_symmetry_space_group_name_H-M 'P 1 21/c 1'
_symmetry_Int_Tables_number 14
loop_
_symmetry_equiv_pos_site_id
_symmetry_equiv_pos_as_xyz
1 'x, -y+1/2, z+1/2'
2 '-x, -y, -z'
3 '-x, y+1/2, -z+1/2'
4 'x, y, z'
loop_
_atom_type_symbol
_atom_type_oxidation_number
Nb5+ 5
I1- -1
loop_
_atom_site_label
_atom_site_type_symbol
_atom_site_symmetry_multiplicity
_atom_site_Wyckoff_symbol
_atom_site_fract_x
_atom_site_fract_y
_atom_site_fract_z
_atom_site_B_iso_or_equiv
_atom_site_occupancy
_atom_site_attached_hydrogens
Nb1 Nb5+ 4 e 0.2 0.5 0.3 . 1. 0
I1 I1- 4 e 0 0.25 0.333 . 1. 0
I2 I1- 4 e 0.2 0.25 0.133 . 1. 0
I3 I1- 4 e 0.4 0.25 0.433 . 1. 0
I4 I1- 4 e 0.6 0.25 0.233 . 1. 0
I5 I1- 4 e 0.8 0.25 0.033 . 1. 0
#End of TTdata_25503-ICSD