
data_25519-ICSD
_database_code_ICSD 25519
_audit_creation_date 1980-01-01
_audit_update_record 2010-08-01
_chemical_name_systematic 'Tungsten oxide tetrachloride'
_chemical_formula_structural 'W O Cl4'
_chemical_formula_sum 'Cl4 O1 W1'
_chemical_name_structure_type WOCl4
_exptl_crystal_density_diffrn 3.95
_cell_length_a 8.48(1)
_cell_length_b 8.48(1)
_cell_length_c 3.995(10)
_cell_angle_alpha 90.
_cell_angle_beta 90.
_cell_angle_gamma 90.
_cell_volume 287.28
_cell_formula_units_Z 2
_symmetry_space_group_name_H-M 'I 4'
_symmetry_Int_Tables_number 79
_refine_ls_R_factor_all 0.064
loop_
_symmetry_equiv_pos_site_id
_symmetry_equiv_pos_as_xyz
1 'y, -x, z'
2 '-y, x, z'
3 '-x, -y, z'
4 'x, y, z'
5 'y+1/2, -x+1/2, z+1/2'
6 '-y+1/2, x+1/2, z+1/2'
7 '-x+1/2, -y+1/2, z+1/2'
8 'x+1/2, y+1/2, z+1/2'
loop_
_atom_type_symbol
_atom_type_oxidation_number
W6+ 6
O2- -2
Cl1- -1
loop_
_atom_site_label
_atom_site_type_symbol
_atom_site_symmetry_multiplicity
_atom_site_Wyckoff_symbol
_atom_site_fract_x
_atom_site_fract_y
_atom_site_fract_z
_atom_site_B_iso_or_equiv
_atom_site_occupancy
_atom_site_attached_hydrogens
W1 W6+ 2 a 0 0 0 1.66 1. 0
O1 O2- 2 a 0 0 0.545(25) 2. 1. 0
Cl1 Cl1- 8 c 0.0669(6) 0.2584(6) 0.0789(14) 2.58 1. 0
