
data_25559-ICSD
_database_code_ICSD 25559
_audit_creation_date 1980-01-01
_audit_update_record 2010-08-01
_chemical_name_systematic 'Barium zinc dioxide'
_chemical_formula_structural 'Ba Zn O2'
_chemical_formula_sum 'Ba1 O2 Zn1'
_chemical_name_structure_type BaZnO2
_exptl_crystal_density_diffrn 5.79
_cell_length_a 5.886(1)
_cell_length_b 5.886(1)
_cell_length_c 6.734(5)
_cell_angle_alpha 90.
_cell_angle_beta 90.
_cell_angle_gamma 120.
_cell_volume 202.04
_cell_formula_units_Z 3
_symmetry_space_group_name_H-M 'P 31 2 1'
_symmetry_Int_Tables_number 152
_refine_ls_R_factor_all 0.047
loop_
_symmetry_equiv_pos_site_id
_symmetry_equiv_pos_as_xyz
1 'x-y, -y, -z+2/3'
2 '-x, -x+y, -z+1/3'
3 'y, x, -z'
4 '-x+y, -x, z+2/3'
5 '-y, x-y, z+1/3'
6 'x, y, z'
loop_
_atom_type_symbol
_atom_type_oxidation_number
Ba2+ 2
Zn2+ 2
O2- -2
loop_
_atom_site_label
_atom_site_type_symbol
_atom_site_symmetry_multiplicity
_atom_site_Wyckoff_symbol
_atom_site_fract_x
_atom_site_fract_y
_atom_site_fract_z
_atom_site_B_iso_or_equiv
_atom_site_occupancy
_atom_site_attached_hydrogens
Ba1 Ba2+ 3 a 0.347(1) 0 0.3333 . 1. 0
Zn1 Zn2+ 3 b 0.418(2) 0 0.8333 . 1. 0
O1 O2- 6 c 0.698(6) 0.118(6) 0.040(5) . 1. 0
