
#(C) 2017 by FIZ Karlsruhe - Leibniz Institute for Information Infrastructure.  All rights reserved.
data_25623-ICSD
_database_code_ICSD 25623
_audit_creation_date 1980-01-01
_audit_update_record 1988-04-29
_chemical_name_systematic 'Mercury hydrazide chloride'
_chemical_formula_structural '(Hg2 N2 H2) Cl2'
_chemical_formula_sum 'H2 Cl2 Hg2 N2'
_exptl_crystal_density_diffrn 5.75
_publ_section_title

;
Infrarotspektroskopische Untersuchung von Quecksilber(II)-Hydrazin-halogeniden
;
loop_
_citation_id
_citation_journal_full
_citation_year
_citation_journal_volume
_citation_page_first
_citation_page_last
_citation_journal_id_ASTM
primary 'Zeitschrift fuer Anorganische und Allgemeine Chemie (1950) (DE)' 1957
290 24 34 ZAACAB
loop_
_publ_author_name
'Brodersen, K.'
_cell_length_a 8.15
_cell_length_b 6.75
_cell_length_c 5.275
_cell_angle_alpha 90.
_cell_angle_beta 90.
_cell_angle_gamma 90.
_cell_volume 290.19
_cell_formula_units_Z 2
_symmetry_space_group_name_H-M 'P m m n Z'
_symmetry_Int_Tables_number 59
loop_
_symmetry_equiv_pos_site_id
_symmetry_equiv_pos_as_xyz
1 'x+1/2, y+1/2, -z'
2 '-x, y+1/2, -z'
3 'x+1/2, -y, -z'
4 '-x, -y, -z'
5 '-x+1/2, -y+1/2, z'
6 'x, -y+1/2, z'
7 '-x+1/2, y, z'
8 'x, y, z'
loop_
_atom_type_symbol
_atom_type_oxidation_number
Hg2+ 2
N2- -2
Cl1- -1
H1+ 1
loop_
_atom_site_label
_atom_site_type_symbol
_atom_site_symmetry_multiplicity
_atom_site_Wyckoff_symbol
_atom_site_fract_x
_atom_site_fract_y
_atom_site_fract_z
_atom_site_B_iso_or_equiv
_atom_site_occupancy
_atom_site_attached_hydrogens
Hg1 Hg2+ 4 c 0 0 0 . 1. 0
N1 N2- 4 f 0.163 0.25 0.05(5) . 1. 0
Cl1 Cl1- 4 f 0.528 0.25 0.5 . 1. 0
#End of TTdata_25623-ICSD