
#(C) 2017 by FIZ Karlsruhe - Leibniz Institute for Information Infrastructure.  All rights reserved.
data_2566-ICSD
_database_code_ICSD 2566
_audit_creation_date 1980-01-01
_audit_update_record 2012-02-01
_chemical_name_systematic 'Cesium octathiopentachromate(III)'
_chemical_formula_structural 'Cs (Cr5 S8)'
_chemical_formula_sum 'Cr5 Cs1 S8'
_chemical_name_structure_type Cr5CsS8
_exptl_crystal_density_diffrn 4.11
_publ_section_title

;
Darstellung und Kristallstruktur der Alkalithiochromate(III) A Cr5 S8  (A= Cs,
Rb und K)
;
loop_
_citation_id
_citation_journal_full
_citation_year
_citation_journal_volume
_citation_page_first
_citation_page_last
_citation_journal_id_ASTM
primary 'Zeitschrift fuer Anorganische und Allgemeine Chemie (1950) (DE)' 1978
447 89 96 ZAACAB
loop_
_publ_author_name
'Huster, J.'
_cell_length_a 17.915(4)
_cell_length_b 3.464(1)
_cell_length_c 8.732(1)
_cell_angle_alpha 90.
_cell_angle_beta 104.62(2)
_cell_angle_gamma 90.
_cell_volume 524.34
_cell_formula_units_Z 2
_symmetry_space_group_name_H-M 'C 1 2/m 1'
_symmetry_Int_Tables_number 12
_refine_ls_R_factor_all 0.054
loop_
_symmetry_equiv_pos_site_id
_symmetry_equiv_pos_as_xyz
1 '-x, y, -z'
2 '-x, -y, -z'
3 'x, -y, z'
4 'x, y, z'
5 '-x+1/2, y+1/2, -z'
6 '-x+1/2, -y+1/2, -z'
7 'x+1/2, -y+1/2, z'
8 'x+1/2, y+1/2, z'
loop_
_atom_type_symbol
_atom_type_oxidation_number
Cs1+ 1
Cr3+ 3
S2- -2
loop_
_atom_site_label
_atom_site_type_symbol
_atom_site_symmetry_multiplicity
_atom_site_Wyckoff_symbol
_atom_site_fract_x
_atom_site_fract_y
_atom_site_fract_z
_atom_site_B_iso_or_equiv
_atom_site_occupancy
_atom_site_attached_hydrogens
Cs1 Cs1+ 2 d 0 0.5 0.5 . 1. 0
Cr1 Cr3+ 2 a 0 0 0 . 1. 0
Cr2 Cr3+ 4 i 0.3408(2) 0 0.0161(4) . 1. 0
Cr3 Cr3+ 4 i 0.2947(2) 0 0.6644(4) . 1. 0
S1 S2- 4 i 0.5749(3) 0 0.1559(6) . 1. 0
S2 S2- 4 i 0.0885(3) 0 0.8340(6) . 1. 0
S3 S2- 4 i 0.1712(3) 0 0.4889(6) . 1. 0
S4 S2- 4 i 0.2406(3) 0 0.1591(7) . 1. 0
loop_
_atom_site_aniso_label
_atom_site_aniso_type_symbol
_atom_site_aniso_U_11
_atom_site_aniso_U_22
_atom_site_aniso_U_33
_atom_site_aniso_U_12
_atom_site_aniso_U_13
_atom_site_aniso_U_23
Cs1 Cs1+ 0.020(1) 0.030(2) 0.028(2) 0 0.006(1) 0
Cr1 Cr3+ 0.001(2) 0.001(2) 0.007(2) 0 0.000(2) 0
Cr2 Cr3+ 0.001(1) 0.006(1) 0.002(2) 0 0.000(1) 0
Cr3 Cr3+ 0.003(1) 0.001(2) 0.007(2) 0 0.002(1) 0
S1 S2- 0.003(2) 0.006(2) 0.009(2) 0 0.000(1) 0
S2 S2- 0.003(2) 0.004(2) 0.008(2) 0 0.001(2) 0
S3 S2- 0.002(2) 0.002(2) 0.004(3) 0 0.002(2) 0
S4 S2- 0.003(2) 0.005(2) 0.011(2) 0 0.004(2) 0
#End of TTdata_2566-ICSD