
data_2596-ICSD
_database_code_ICSD 2596
_audit_creation_date 1980-01-01
_audit_update_record 2016-02-01
_chemical_name_systematic 'Chromium(II) iodide'
_chemical_formula_structural 'Cr I2'
_chemical_formula_sum 'Cr1 I2'
_chemical_name_structure_type HgI2(oS12)
_exptl_crystal_density_diffrn 5.06
_cell_length_a 3.915(3)
_cell_length_b 7.560(6)
_cell_length_c 13.553(12)
_cell_angle_alpha 90.
_cell_angle_beta 90.
_cell_angle_gamma 90.
_cell_volume 401.13
_cell_formula_units_Z 4
_symmetry_space_group_name_H-M 'C m c 21'
_symmetry_Int_Tables_number 36
_refine_ls_R_factor_all 0.11
loop_
_symmetry_equiv_pos_site_id
_symmetry_equiv_pos_as_xyz
1 'x, -y, z+1/2'
2 '-x, -y, z+1/2'
3 '-x, y, z'
4 'x, y, z'
5 'x+1/2, -y+1/2, z+1/2'
6 '-x+1/2, -y+1/2, z+1/2'
7 '-x+1/2, y+1/2, z'
8 'x+1/2, y+1/2, z'
loop_
_atom_type_symbol
_atom_type_oxidation_number
I1- -1
Cr2+ 2
loop_
_atom_site_label
_atom_site_type_symbol
_atom_site_symmetry_multiplicity
_atom_site_Wyckoff_symbol
_atom_site_fract_x
_atom_site_fract_y
_atom_site_fract_z
_atom_site_B_iso_or_equiv
_atom_site_occupancy
_atom_site_attached_hydrogens
I1 I1- 4 a 0 0.207(1) 0.259(1) 1. 1. 0
I2 I1- 4 a 0.5 0.030(1) 0 0.9 1. 0
Cr1 Cr2+ 4 a 0.5 0.164(3) 0.380(2) 1.1 1. 0
