
#(C) 2017 by FIZ Karlsruhe - Leibniz Institute for Information Infrastructure.  All rights reserved.
data_260373-ICSD
_database_code_ICSD 260373
_audit_creation_date 2009-08-01
_chemical_name_systematic 'Rhodium tellurium germanide (1/1/1)'
_chemical_formula_structural 'Rh Te Ge'
_chemical_formula_sum 'Ge1 Rh1 Te1'
_chemical_name_structure_type NiAs2
_exptl_crystal_density_diffrn 8.58
_publ_section_title

;
Synthesis and characterisation of the anion-ordered tellurides M Ge Te (M =
Co, Rh)
;
loop_
_citation_id
_citation_journal_full
_citation_year
_citation_journal_volume
_citation_page_first
_citation_page_last
_citation_journal_id_ASTM
primary 'Solid State Sciences' 2009 11 1077 1082 SSSCFJ
loop_
_publ_author_name
'Vaqueiro, P.'
'Sobany, G.G.'
'Guinet, F.'
'Leyva-Bailen, P.'
_cell_length_a 6.3579(1)
_cell_length_b 6.3879(1)
_cell_length_c 11.4902(3)
_cell_angle_alpha 90
_cell_angle_beta 90
_cell_angle_gamma 90
_cell_volume 466.66
_cell_formula_units_Z 8
_symmetry_space_group_name_H-M 'P b c a'
_symmetry_Int_Tables_number 61
_refine_ls_R_factor_all 0.0366
loop_
_symmetry_equiv_pos_site_id
_symmetry_equiv_pos_as_xyz
1 'x+1/2, y, -z+1/2'
2 'x, -y+1/2, z+1/2'
3 '-x+1/2, y+1/2, z'
4 '-x, -y, -z'
5 '-x+1/2, -y, z+1/2'
6 '-x, y+1/2, -z+1/2'
7 'x+1/2, -y+1/2, -z'
8 'x, y, z'
loop_
_atom_type_symbol
_atom_type_oxidation_number
Rh0+ 0
Ge0+ 0
Te0+ 0
loop_
_atom_site_label
_atom_site_type_symbol
_atom_site_symmetry_multiplicity
_atom_site_Wyckoff_symbol
_atom_site_fract_x
_atom_site_fract_y
_atom_site_fract_z
_atom_site_B_iso_or_equiv
_atom_site_occupancy
_atom_site_attached_hydrogens
Rh1 Rh0+ 8 c 0.5029(2) 0.6106(2) 0.3891(1) 0.0067(3) 1. 0
Ge1 Ge0+ 8 c 0.6536(2) 0.2684(3) 0.4280(2) 0.0128(5) 1. 0
Te1 Te0+ 8 c 0.1165(1) 0.4958(2) 0.32594(9) 0.0048(3) 1. 0
#End of TTdata_260373-ICSD