
#(C) 2017 by FIZ Karlsruhe - Leibniz Institute for Information Infrastructure.  All rights reserved.
data_260996-ICSD
_database_code_ICSD 260996
_audit_creation_date 2011-02-01
_chemical_name_systematic 'Hafnium molybdenum silicide (9/4/1) - kappa'
_chemical_formula_structural 'Hf9 Mo4 Si'
_chemical_formula_sum 'Hf9 Mo4 Si1'
_chemical_name_structure_type Hf9Mo4B/Al5Co2
_exptl_crystal_density_diffrn 12.11
_publ_section_title 'Crystal structure of kappa - Hf9 Mo4 Si D16.8 deuteride'
loop_
_citation_id
_citation_journal_full
_citation_year
_citation_journal_volume
_citation_page_first
_citation_page_last
_citation_journal_id_ASTM
primary 'Chemistry of Metals and Alloys' 2008 1 180 184 CMEAL3
loop_
_publ_author_name
'Koval'chuk, I.V.'
'Cerny, R.'
'Denys, R.V.'
'Zavaliy, I.Yu.'
_cell_length_a 8.6116(6)
_cell_length_b 8.6116(6)
_cell_length_c 8.6188(8)
_cell_angle_alpha 90.
_cell_angle_beta 90.
_cell_angle_gamma 120.
_cell_volume 553.54
_cell_formula_units_Z 2
_symmetry_space_group_name_H-M 'P 63/m m c'
_symmetry_Int_Tables_number 194
_refine_ls_R_factor_all 0.0374
loop_
_symmetry_equiv_pos_site_id
_symmetry_equiv_pos_as_xyz
1 'x, x-y, -z+1/2'
2 '-x+y, y, -z+1/2'
3 '-y, -x, -z+1/2'
4 '-x+y, -x, -z+1/2'
5 '-y, x-y, -z+1/2'
6 'x, y, -z+1/2'
7 '-x, -x+y, z+1/2'
8 'x-y, -y, z+1/2'
9 'y, x, z+1/2'
10 'x-y, x, z+1/2'
11 'y, -x+y, z+1/2'
12 '-x, -y, z+1/2'
13 '-x, -x+y, -z'
14 'x-y, -y, -z'
15 'y, x, -z'
16 'x-y, x, -z'
17 'y, -x+y, -z'
18 '-x, -y, -z'
19 'x, x-y, z'
20 '-x+y, y, z'
21 '-y, -x, z'
22 '-x+y, -x, z'
23 '-y, x-y, z'
24 'x, y, z'
loop_
_atom_type_symbol
_atom_type_oxidation_number
Hf0+ 0
Mo0+ 0
Si0+ 0
loop_
_atom_site_label
_atom_site_type_symbol
_atom_site_symmetry_multiplicity
_atom_site_Wyckoff_symbol
_atom_site_fract_x
_atom_site_fract_y
_atom_site_fract_z
_atom_site_B_iso_or_equiv
_atom_site_occupancy
_atom_site_attached_hydrogens
Hf1 Hf0+ 6 h 0.5386(6) 0.0772(12) 0.25 0.005 1. 0
Hf2 Hf0+ 12 k 0.1994(4) 0.3988(8) 0.0522(6) 0.005 1. 0
Mo1 Mo0+ 2 a 0 0 0 0.005 1. 0
Mo2 Mo0+ 6 h 0.8914(8) 0.7828(16) 0.25 0.005 1. 0
Si1 Si0+ 2 c 0.3333 0.6667 0.25 0.005 1. 0
#End of TTdata_260996-ICSD