
#(C) 2017 by FIZ Karlsruhe - Leibniz Institute for Information Infrastructure.  All rights reserved.
data_26109-ICSD
_database_code_ICSD 26109
_audit_creation_date 1980-01-01
_audit_update_record 2012-02-01
_chemical_name_systematic 'Molybdenum(III) chloride - beta'
_chemical_formula_structural 'Mo Cl3'
_chemical_formula_sum 'Cl3 Mo1'
_chemical_name_structure_type MoCl3
_exptl_crystal_density_diffrn 3.76
_publ_section_title 'Neue Untersuchungen ueber die Chloride des Molybdaens'
loop_
_citation_id
_citation_journal_full
_citation_year
_citation_journal_volume
_citation_page_first
_citation_page_last
_citation_journal_id_ASTM
primary 'Zeitschrift fuer Anorganische und Allgemeine Chemie (1950) (DE)' 1967
353 281 310 ZAACAB
loop_
_publ_author_name
'Schaefer, H.'
'von Schnering, H.G.'
'Tillack, J.V.'
'Kuhnen, F.'
'Woehrle, H.'
'Baumann, H.'
_cell_length_a 6.115
_cell_length_b 9.814
_cell_length_c 11.906
_cell_angle_alpha 90.
_cell_angle_beta 91.
_cell_angle_gamma 90.
_cell_volume 714.4
_cell_formula_units_Z 8
_symmetry_space_group_name_H-M 'C 1 2/c 1'
_symmetry_Int_Tables_number 15
loop_
_symmetry_equiv_pos_site_id
_symmetry_equiv_pos_as_xyz
1 'x, -y, z+1/2'
2 '-x, -y, -z'
3 '-x, y, -z+1/2'
4 'x, y, z'
5 'x+1/2, -y+1/2, z+1/2'
6 '-x+1/2, -y+1/2, -z'
7 '-x+1/2, y+1/2, -z+1/2'
8 'x+1/2, y+1/2, z'
loop_
_atom_type_symbol
_atom_type_oxidation_number
Mo3+ 3
Cl1- -1
loop_
_atom_site_label
_atom_site_type_symbol
_atom_site_symmetry_multiplicity
_atom_site_Wyckoff_symbol
_atom_site_fract_x
_atom_site_fract_y
_atom_site_fract_z
_atom_site_B_iso_or_equiv
_atom_site_occupancy
_atom_site_attached_hydrogens
Mo1 Mo3+ 4 e 0 0.025 0.25 . 1. 0
Mo2 Mo3+ 4 e 0 0.309 0.25 . 1. 0
Cl1 Cl1- 8 f -.185 0.167 0.387 . 1. 0
Cl2 Cl1- 8 f -.15 0.497 0.363 . 1. 0
Cl3 Cl1- 8 f -.15 0.837 0.363 . 1. 0
#End of TTdata_26109-ICSD