
#(C) 2017 by FIZ Karlsruhe - Leibniz Institute for Information Infrastructure.  All rights reserved.
data_261117-ICSD
_database_code_ICSD 261117
_audit_creation_date 2011-02-01
_chemical_name_systematic 'Disodium strontium tetrastannide'
_chemical_formula_structural 'Na2 Sr Sn4'
_chemical_formula_sum 'Na2 Sn4 Sr1'
_exptl_crystal_density_diffrn 4.79
_cell_measurement_temperature 293.
_publ_section_title
'Crystal structure of disodium strontium tetrastannide, Na2 Sr Sn4'
loop_
_citation_id
_citation_journal_full
_citation_year
_citation_journal_volume
_citation_page_first
_citation_page_last
_citation_journal_id_ASTM
primary 'Zeitschrift fuer Kristallographie - New Crystal Structures' 2010 225
629 630 ZKNSFT
loop_
_publ_author_name
'Kim Sung Jin'
'Faessler, T.F.'
_cell_length_a 19.0003(14)
_cell_length_b 6.6970(5)
_cell_length_c 6.6511(5)
_cell_angle_alpha 90.
_cell_angle_beta 93.935(7)
_cell_angle_gamma 90.
_cell_volume 844.32
_cell_formula_units_Z 4
_symmetry_space_group_name_H-M 'C 1 2/c 1'
_symmetry_Int_Tables_number 15
_refine_ls_R_factor_all 0.0477
loop_
_symmetry_equiv_pos_site_id
_symmetry_equiv_pos_as_xyz
1 'x, -y, z+1/2'
2 '-x, -y, -z'
3 '-x, y, -z+1/2'
4 'x, y, z'
5 'x+1/2, -y+1/2, z+1/2'
6 '-x+1/2, -y+1/2, -z'
7 '-x+1/2, y+1/2, -z+1/2'
8 'x+1/2, y+1/2, z'
loop_
_atom_type_symbol
_atom_type_oxidation_number
Na0+ 0
Sr0+ 0
Sn0+ 0
loop_
_atom_site_label
_atom_site_type_symbol
_atom_site_symmetry_multiplicity
_atom_site_Wyckoff_symbol
_atom_site_fract_x
_atom_site_fract_y
_atom_site_fract_z
_atom_site_B_iso_or_equiv
_atom_site_occupancy
_atom_site_attached_hydrogens
Na1 Na0+ 8 f -0.2019(3) 0.4013(11) -0.1999(10) 0.0460(16) 1 0
Sr1 Sr0+ 4 e 0. 0.7786(3) 0.25 0.0253(5) 1 0
Sn1 Sn0+ 8 f -0.07745(6) 0.29279(16) 0.22799(15) 0.0347(4) 1 0
Sn2 Sn0+ 8 f -0.15209(5) -0.01916(17) -0.01422(17) 0.0361(4) 1 0
loop_
_atom_site_aniso_label
_atom_site_aniso_type_symbol
_atom_site_aniso_U_11
_atom_site_aniso_U_22
_atom_site_aniso_U_33
_atom_site_aniso_U_12
_atom_site_aniso_U_13
_atom_site_aniso_U_23
Na1 Na0+ 0.039(3) 0.040(4) 0.060(4) 0.009(3) 0.008(3) 0.016(3)
Sr1 Sr0+ 0.0273(10) 0.0223(10) 0.0263(9) 0. 0.0030(7) 0.
Sn1 Sn0+ 0.0448(7) 0.0264(6) 0.0323(6) 0.0111(5) -0.0015(4) -0.0015(4)
Sn2 Sn0+ 0.0240(5) 0.0344(7) 0.0495(7) -0.0010(5) -0.0014(4) 0.0072(5)
#End of TTdata_261117-ICSD