
#(C) 2017 by FIZ Karlsruhe - Leibniz Institute for Information Infrastructure.  All rights reserved.
data_261143-ICSD
_database_code_ICSD 261143
_audit_creation_date 2011-02-01
_chemical_name_systematic 'Dimanganese(II) diarsenate(V)'
_chemical_formula_structural 'Mn2 As2 O7'
_chemical_formula_sum 'As2 Mn2 O7'
_chemical_name_structure_type Sc2Si2O7
_exptl_crystal_density_diffrn 4.46
_cell_measurement_temperature 295.
_publ_section_title

;
Crystal chemistry of transition metal diarsenates M2 As2 O7 (M = Mn, Co, Ni,
Zn): variants of the thortveitite structure
;
loop_
_citation_id
_citation_journal_full
_citation_year
_citation_journal_volume
_citation_page_first
_citation_page_last
_citation_journal_id_ASTM
primary 'Acta Crystallographica, Section B: Structural Science' 2010 66 603 614
ASBSDK
loop_
_publ_author_name
'Weil, M.'
'Stoeger, B.'
_cell_length_a 6.7454(8)
_cell_length_b 8.7561(10)
_cell_length_c 4.8004(7)
_cell_angle_alpha 90.
_cell_angle_beta 102.723(12)
_cell_angle_gamma 90.
_cell_volume 276.57
_cell_formula_units_Z 2
_symmetry_space_group_name_H-M 'C 1 2/m 1'
_symmetry_Int_Tables_number 12
_refine_ls_R_factor_all 0.0365
loop_
_symmetry_equiv_pos_site_id
_symmetry_equiv_pos_as_xyz
1 '-x, y, -z'
2 '-x, -y, -z'
3 'x, -y, z'
4 'x, y, z'
5 '-x+1/2, y+1/2, -z'
6 '-x+1/2, -y+1/2, -z'
7 'x+1/2, -y+1/2, z'
8 'x+1/2, y+1/2, z'
loop_
_atom_type_symbol
_atom_type_oxidation_number
As5+ 5
Mn2+ 2
O2- -2
loop_
_atom_site_label
_atom_site_type_symbol
_atom_site_symmetry_multiplicity
_atom_site_Wyckoff_symbol
_atom_site_fract_x
_atom_site_fract_y
_atom_site_fract_z
_atom_site_B_iso_or_equiv
_atom_site_occupancy
_atom_site_attached_hydrogens
As1 As5+ 4 i 0.77188(4) 0 0.59340(6) 0.00737(9) 1 0
Mn1 Mn2+ 4 g 0.5 0.19269(5) 0 0.00933(11) 1 0
O1 O2- 4 i 0.6069(4) 0 0.2792(5) 0.0115(5) 1 0
O2 O2- 2 c 1 0 0.5 0.063(3) 1 0
O3 O2- 8 j 0.7673(3) -0.1587(2) 0.7836(4) 0.0135(4) 1 0
loop_
_atom_site_aniso_label
_atom_site_aniso_type_symbol
_atom_site_aniso_U_11
_atom_site_aniso_U_22
_atom_site_aniso_U_33
_atom_site_aniso_U_12
_atom_site_aniso_U_13
_atom_site_aniso_U_23
As1 As5+ 0.00475(14) 0.01204(15) 0.00509(14) 0 0.00062(8) 0
Mn1 Mn2+ 0.00768(18) 0.01120(18) 0.00854(19) 0 0.00056(13) 0
O1 O2- 0.0126(9) 0.0133(8) 0.0062(7) 0 -0.0034(6) 0
O2 O2- 0.013(2) 0.114(8) 0.069(6) 0 0.026(3) 0
O3 O2- 0.0152(7) 0.0139(6) 0.0109(6) 0.0046(5) 0.0017(5) 0.0042(5)
#End of TTdata_261143-ICSD