
#(C) 2017 by FIZ Karlsruhe - Leibniz Institute for Information Infrastructure.  All rights reserved.
data_261341-ICSD
_database_code_ICSD 261341
_audit_creation_date 2011-08-01
_chemical_name_systematic 'Calcium technetium trioxide'
_chemical_formula_structural 'Ca Tc O3'
_chemical_formula_sum 'Ca1 O3 Tc1'
_chemical_name_structure_type Perovskite-GdFeO3
_exptl_crystal_density_diffrn 5.37
_cell_measurement_temperature 293.
_publ_section_title
'Antiferromagnetism in a technetium oxide. Structure of Ca Tc O3'
loop_
_citation_id
_citation_journal_full
_citation_year
_citation_journal_volume
_citation_page_first
_citation_page_last
_citation_journal_id_ASTM
primary 'Journal of the American Chemical Society' 2011 133 1654 1657 JACSAT
loop_
_publ_author_name
'Avdeev, M.'
'Thorogood, G.J.'
'Carter, M.L.'
'Kennedy, B.J.'
'Ting, J.'
'Singh, D.J.'
'Wallwork, K.S.'
_cell_length_a 5.5327(3)
_cell_length_b 7.7224(4)
_cell_length_c 5.4112(3)
_cell_angle_alpha 90.
_cell_angle_beta 90.
_cell_angle_gamma 90.
_cell_volume 231.2
_cell_formula_units_Z 4
_symmetry_space_group_name_H-M 'P n m a'
_symmetry_Int_Tables_number 62
_refine_ls_R_factor_all 0.0469
loop_
_symmetry_equiv_pos_site_id
_symmetry_equiv_pos_as_xyz
1 'x+1/2, y, -z+1/2'
2 'x, -y+1/2, z'
3 '-x+1/2, y+1/2, z+1/2'
4 '-x, -y, -z'
5 '-x+1/2, -y, z+1/2'
6 '-x, y+1/2, -z'
7 'x+1/2, -y+1/2, -z+1/2'
8 'x, y, z'
loop_
_atom_type_symbol
_atom_type_oxidation_number
Ca2+ 2
Tc4+ 4
O2- -2
loop_
_atom_site_label
_atom_site_type_symbol
_atom_site_symmetry_multiplicity
_atom_site_Wyckoff_symbol
_atom_site_fract_x
_atom_site_fract_y
_atom_site_fract_z
_atom_site_B_iso_or_equiv
_atom_site_occupancy
_atom_site_attached_hydrogens
Ca1 Ca2+ 4 c 0.0440(6) 0.25 0.5139(9) 1.19(6) 1. 0
Tc1 Tc4+ 4 a 0. 0. 0. 0.94(4) 1. 0
O1 O2- 4 c 0.4768(6) 0.25 0.4148(6) 0.95(5) 1. 0
O2 O2- 8 d 0.2046(4) -0.0471(3) 0.2966(4) 1.01(3) 1. 0
#End of TTdata_261341-ICSD