
#(C) 2017 by FIZ Karlsruhe - Leibniz Institute for Information Infrastructure.  All rights reserved.
data_261456-ICSD
_database_code_ICSD 261456
_audit_creation_date 2011-08-01
_audit_update_record 2013-08-01
_chemical_name_systematic 'Bismuth palladium selenide (2/3/2)'
_chemical_formula_structural 'Bi2 Pd3 Se2'
_chemical_formula_sum 'Bi2 Pd3 Se2'
_chemical_name_structure_type Ni3Bi2S2
_exptl_crystal_density_diffrn 9.9
_publ_section_title

;
Palladium site ordering and the occurrence of superconductivity in Bi2 Pd3
Se(2-x) S(x)
;
loop_
_citation_id
_citation_journal_full
_citation_year
_citation_journal_volume
_citation_page_first
_citation_page_last
_citation_journal_id_ASTM
primary 'Journal of Solid State Chemistry' 2011 184 797 804 JSSCBI
loop_
_publ_author_name
'Weihrich, R.'
'Matar, S.F.'
'Anusca, I.'
'Pielnhofer, F.'
'Peter, P.'
'Bachhuber, F.'
'Eyert, V.'
_cell_length_a 11.743(2)
_cell_length_b 8.431(2)
_cell_length_c 8.423(2)
_cell_angle_alpha 90
_cell_angle_beta 133.93(1)
_cell_angle_gamma 90
_cell_volume 600.58
_cell_formula_units_Z 4
_symmetry_space_group_name_H-M 'C 1 2/m 1'
_symmetry_Int_Tables_number 12
_refine_ls_R_factor_all 0.029
loop_
_symmetry_equiv_pos_site_id
_symmetry_equiv_pos_as_xyz
1 '-x, y, -z'
2 '-x, -y, -z'
3 'x, -y, z'
4 'x, y, z'
5 '-x+1/2, y+1/2, -z'
6 '-x+1/2, -y+1/2, -z'
7 'x+1/2, -y+1/2, z'
8 'x+1/2, y+1/2, z'
loop_
_atom_type_symbol
_atom_type_oxidation_number
Bi0+ 0
Pd0+ 0
Se0+ 0
loop_
_atom_site_label
_atom_site_type_symbol
_atom_site_symmetry_multiplicity
_atom_site_Wyckoff_symbol
_atom_site_fract_x
_atom_site_fract_y
_atom_site_fract_z
_atom_site_B_iso_or_equiv
_atom_site_occupancy
_atom_site_attached_hydrogens
Bi1 Bi0+ 4 i 0.2186 0 0.205 . 1. 0
Bi2 Bi0+ 4 i 0.24994 0 0.7586 . 1. 0
Pd1 Pd0+ 4 i 0.0264 0 0.3014 . 1. 0
Pd2 Pd0+ 4 g 0 0.2767 0 . 1. 0
Pd3 Pd0+ 4 e 0.25 0.25 0 . 1. 0
Se1 Se0+ 8 j 0.0336 0.2906 0.3217 . 1. 0
#End of TTdata_261456-ICSD