
#(C) 2017 by FIZ Karlsruhe - Leibniz Institute for Information Infrastructure.  All rights reserved.
data_261640-ICSD
_database_code_ICSD 261640
_audit_creation_date 2011-08-01
_chemical_name_systematic 'Trichromium(II) bis(orthophosphate) - beta'
_chemical_formula_structural 'Cr3 (P O4)2'
_chemical_formula_sum 'Cr3 O8 P2'
_chemical_name_structure_type Mg3(PO4)2
_exptl_crystal_density_diffrn 3.76
_cell_measurement_temperature 293.
_publ_section_title
'Synthese und Charakterisierung von beta-Chrom(II)-orthophosphat'
loop_
_citation_id
_citation_journal_full
_citation_year
_citation_journal_volume
_citation_page_first
_citation_page_last
_citation_journal_id_ASTM
primary 'Zeitschrift fuer Anorganische und Allgemeine Chemie (1950) (DE)' 2011
637 1052 1061 ZAACAB
loop_
_publ_author_name
'Glaum, R.'
'Hammer, E.'
'Hermes, W.'
'Poettgen, R.'
_cell_length_a 4.9653(3)
_cell_length_b 9.4951(8)
_cell_length_c 6.4839(4)
_cell_angle_alpha 90.
_cell_angle_beta 91.382(4)
_cell_angle_gamma 90.
_cell_volume 305.6
_cell_formula_units_Z 2
_symmetry_space_group_name_H-M 'P 1 21/n 1'
_symmetry_Int_Tables_number 14
_refine_ls_R_factor_all 0.0262
loop_
_symmetry_equiv_pos_site_id
_symmetry_equiv_pos_as_xyz
1 '-x+1/2, y+1/2, -z+1/2'
2 '-x, -y, -z'
3 'x+1/2, -y+1/2, z+1/2'
4 'x, y, z'
loop_
_atom_type_symbol
_atom_type_oxidation_number
Cr2+ 2
P5+ 5
O2- -2
loop_
_atom_site_label
_atom_site_type_symbol
_atom_site_symmetry_multiplicity
_atom_site_Wyckoff_symbol
_atom_site_fract_x
_atom_site_fract_y
_atom_site_fract_z
_atom_site_B_iso_or_equiv
_atom_site_occupancy
_atom_site_attached_hydrogens
Cr1 Cr2+ 4 e 0.05055(6) 0.62300(3) 0.84806(4) 0.00752(9) 1 0
Cr2 Cr2+ 2 a 0. 1. 1. 0.0089(1) 1 0
P1 P5+ 4 e -0.3427(1) -0.18147(4) 0.15193(6) 0.0056(1) 1 0
O1 O2- 4 e -0.6856(3) -0.1758(1) 0.1171(1) 0.0085(2) 1 0
O2 O2- 4 e -0.3829(3) -0.1166(2) -0.0385(1) 0.0081(2) 1 0
O3 O2- 4 e -0.0968(3) -0.0847(1) 0.3383(1) 0.0085(2) 1 0
O4 O2- 4 e -0.2224(3) -0.3311(1) 0.1841(1) 0.0097(2) 1 0
#End of TTdata_261640-ICSD