
#(C) 2017 by FIZ Karlsruhe - Leibniz Institute for Information Infrastructure.  All rights reserved.
data_26163-ICSD
_database_code_ICSD 26163
_audit_creation_date 1986-10-09
_audit_update_record 2007-04-01
_chemical_name_systematic 'Magnesium hexafluoropalladate(IV)'
_chemical_formula_structural 'Mg (Pd F6)'
_chemical_formula_sum 'F6 Mg1 Pd1'
_chemical_name_structure_type LiSbF6
_exptl_crystal_density_diffrn 4.21
_publ_section_title 'Neue ternaere Fluoride des Palladiums und Platins'
loop_
_citation_id
_citation_journal_full
_citation_year
_citation_journal_volume
_citation_page_first
_citation_page_last
_citation_journal_id_ASTM
primary 'Zeitschrift fuer Anorganische und Allgemeine Chemie (1950) (DE)' 1968
359 160 177 ZAACAB
loop_
_publ_author_name
'Henkel, H.'
'Hoppe, R.'
_cell_length_a 4.98
_cell_length_b 4.98
_cell_length_c 13.48
_cell_angle_alpha 90.
_cell_angle_beta 90.
_cell_angle_gamma 120.
_cell_volume 289.52
_cell_formula_units_Z 3
_symmetry_space_group_name_H-M 'R -3 H'
_symmetry_Int_Tables_number 148
loop_
_symmetry_equiv_pos_site_id
_symmetry_equiv_pos_as_xyz
1 'x-y, x, -z'
2 'y, -x+y, -z'
3 '-x, -y, -z'
4 '-x+y, -x, z'
5 '-y, x-y, z'
6 'x, y, z'
7 'x-y+2/3, x+1/3, -z+1/3'
8 'y+2/3, -x+y+1/3, -z+1/3'
9 '-x+2/3, -y+1/3, -z+1/3'
10 '-x+y+2/3, -x+1/3, z+1/3'
11 '-y+2/3, x-y+1/3, z+1/3'
12 'x+2/3, y+1/3, z+1/3'
13 'x-y+1/3, x+2/3, -z+2/3'
14 'y+1/3, -x+y+2/3, -z+2/3'
15 '-x+1/3, -y+2/3, -z+2/3'
16 '-x+y+1/3, -x+2/3, z+2/3'
17 '-y+1/3, x-y+2/3, z+2/3'
18 'x+1/3, y+2/3, z+2/3'
loop_
_atom_type_symbol
_atom_type_oxidation_number
Pd4+ 4
Mg2+ 2
F1- -1
loop_
_atom_site_label
_atom_site_type_symbol
_atom_site_symmetry_multiplicity
_atom_site_Wyckoff_symbol
_atom_site_fract_x
_atom_site_fract_y
_atom_site_fract_z
_atom_site_B_iso_or_equiv
_atom_site_occupancy
_atom_site_attached_hydrogens
Pd1 Pd4+ 3 a 0 0 0 3.6 1. 0
Mg1 Mg2+ 3 b 0 0 0.5 3.6 1. 0
F1 F1- 18 f 0.319 0.018 -.075 3.6 1. 0
#End of TTdata_26163-ICSD