
#(C) 2017 by FIZ Karlsruhe - Leibniz Institute for Information Infrastructure.  All rights reserved.
data_26160-ICSD
_database_code_ICSD 26160
_audit_creation_date 1980-01-01
_chemical_name_systematic 'Barium chloride - II'
_chemical_formula_structural 'Ba Cl2'
_chemical_formula_sum 'Ba1 Cl2'
_chemical_name_structure_type PbCl2
_exptl_crystal_density_diffrn 3.94
_publ_section_title

;
An Interpretation of the Structures of Alkaline Earth Chlorides in Terms of
Interionic Forces
;
loop_
_citation_id
_citation_journal_full
_citation_year
_citation_journal_volume
_citation_page_first
_citation_page_last
_citation_journal_id_ASTM
primary 'Transactions of the American Crystallographic Association' 1970 6 57 72
TACAAH
loop_
_publ_author_name
'Busing, W.R.'
_cell_length_a 9.415
_cell_length_b 7.878
_cell_length_c 4.731
_cell_angle_alpha 90.
_cell_angle_beta 90.
_cell_angle_gamma 90.
_cell_volume 350.9
_cell_formula_units_Z 4
_symmetry_space_group_name_H-M 'P b n m'
_symmetry_Int_Tables_number 62
loop_
_symmetry_equiv_pos_site_id
_symmetry_equiv_pos_as_xyz
1 '-x+1/2, y+1/2, z'
2 'x, y, -z+1/2'
3 'x+1/2, -y+1/2, z+1/2'
4 '-x, -y, -z'
5 'x+1/2, -y+1/2, -z'
6 '-x, -y, z+1/2'
7 '-x+1/2, y+1/2, -z+1/2'
8 'x, y, z'
loop_
_atom_type_symbol
_atom_type_oxidation_number
Ba2+ 2
Cl1- -1
loop_
_atom_site_label
_atom_site_type_symbol
_atom_site_symmetry_multiplicity
_atom_site_Wyckoff_symbol
_atom_site_fract_x
_atom_site_fract_y
_atom_site_fract_z
_atom_site_B_iso_or_equiv
_atom_site_occupancy
_atom_site_attached_hydrogens
Ba1 Ba2+ 4 c 0.118 0.25 0.25 . 1. 0
Cl1 Cl1- 4 c 0.431 0.356 0.25 . 1. 0
Cl2 Cl1- 4 c 0.829 0.473 0.25 . 1. 0
#End of TTdata_26160-ICSD