
#(C) 2017 by FIZ Karlsruhe - Leibniz Institute for Information Infrastructure.  All rights reserved.
data_261714-ICSD
_database_code_ICSD 261714
_audit_creation_date 2012-02-01
_chemical_name_systematic 'Barium Indium (2/1)'
_chemical_formula_structural 'Ba2 In'
_chemical_formula_sum 'Ba2 In1'
_chemical_name_structure_type Co2Si
_exptl_crystal_density_diffrn 4.94
_publ_section_title

;
Synthesis and crystal structure of Ba2 In - how binary are binary phase
diagrams?
;
loop_
_citation_id
_citation_journal_full
_citation_year
_citation_journal_volume
_citation_page_first
_citation_page_last
_citation_journal_id_ASTM
primary 'Zeitschrift fuer Kristallographie - Crystalline Materials' 2011 226 585
589 ZKCMAJ
loop_
_publ_author_name
'Bischoff, M.'
'Gudat, D.'
'Niewa, R.'
_cell_length_a 8.0973(3)
_cell_length_b 5.9134(2)
_cell_length_c 10.9390(4)
_cell_angle_alpha 90.
_cell_angle_beta 90.
_cell_angle_gamma 90.
_cell_volume 523.79
_cell_formula_units_Z 4
_symmetry_space_group_name_H-M 'P n m a'
_symmetry_Int_Tables_number 62
_refine_ls_R_factor_all 0.0235
loop_
_symmetry_equiv_pos_site_id
_symmetry_equiv_pos_as_xyz
1 'x+1/2, y, -z+1/2'
2 'x, -y+1/2, z'
3 '-x+1/2, y+1/2, z+1/2'
4 '-x, -y, -z'
5 '-x+1/2, -y, z+1/2'
6 '-x, y+1/2, -z'
7 'x+1/2, -y+1/2, -z+1/2'
8 'x, y, z'
loop_
_atom_type_symbol
_atom_type_oxidation_number
Ba0+ 0
In0+ 0
loop_
_atom_site_label
_atom_site_type_symbol
_atom_site_symmetry_multiplicity
_atom_site_Wyckoff_symbol
_atom_site_fract_x
_atom_site_fract_y
_atom_site_fract_z
_atom_site_B_iso_or_equiv
_atom_site_occupancy
_atom_site_attached_hydrogens
Ba1 Ba0+ 4 c 0.02260(6) 0.25 0.30562(4) 0.0295(2) 1. 0
Ba2 Ba0+ 4 c 0.67751(7) 0.25 0.57393(4) 0.0341(2) 1. 0
In1 In0+ 4 c 0.23127(9) 0.25 0.60487(5) 0.0333(2) 1. 0
loop_
_atom_site_aniso_label
_atom_site_aniso_type_symbol
_atom_site_aniso_U_11
_atom_site_aniso_U_22
_atom_site_aniso_U_33
_atom_site_aniso_U_12
_atom_site_aniso_U_13
_atom_site_aniso_U_23
Ba1 Ba0+ 0.0220(2) 0.0335(3) 0.0329(3) 0. 0.0001(2) 0.
Ba2 Ba0+ 0.0597(4) 0.0206(2) 0.0221(2) 0. -0.0003(2) 0.
In1 In0+ 0.0539(4) 0.0220(3) 0.0239(3) 0. 0.0047(2) 0.
#End of TTdata_261714-ICSD