
#(C) 2017 by FIZ Karlsruhe - Leibniz Institute for Information Infrastructure.  All rights reserved.
data_261871-ICSD
_database_code_ICSD 261871
_audit_creation_date 2012-02-01
_audit_update_record 2013-08-01
_chemical_name_systematic 'Lanthanum stannide (2/5)'
_chemical_formula_structural 'La2 Sn5'
_chemical_formula_sum 'La2 Sn5'
_exptl_crystal_density_diffrn 7.41
_publ_section_title

;
The binary tin-rich lanthanum stannides La2 Sn5 and La3 Sn7 - A structural and
bond theoretical study
;
loop_
_citation_id
_citation_journal_full
_citation_year
_citation_journal_volume
_citation_page_first
_citation_page_last
_citation_journal_id_ASTM
primary 'Journal of Solid State Chemistry' 2011 184 2220 2230 JSSCBI
loop_
_publ_author_name
'Duerr, I.'
'Schwarz, M.'
'Roehr, C.'
_cell_length_a 4.6385(3)
_cell_length_b 35.813(3)
_cell_length_c 4.6983(4)
_cell_angle_alpha 90.
_cell_angle_beta 90.
_cell_angle_gamma 90.
_cell_volume 780.48
_cell_formula_units_Z 4
_symmetry_space_group_name_H-M 'C m m m'
_symmetry_Int_Tables_number 65
_refine_ls_R_factor_all 0.102
loop_
_symmetry_equiv_pos_site_id
_symmetry_equiv_pos_as_xyz
1 'x, -y, z'
2 '-x, y, z'
3 'x, y, -z'
4 '-x, -y, -z'
5 '-x, y, -z'
6 'x, -y, -z'
7 '-x, -y, z'
8 'x, y, z'
9 'x+1/2, -y+1/2, z'
10 '-x+1/2, y+1/2, z'
11 'x+1/2, y+1/2, -z'
12 '-x+1/2, -y+1/2, -z'
13 '-x+1/2, y+1/2, -z'
14 'x+1/2, -y+1/2, -z'
15 '-x+1/2, -y+1/2, z'
16 'x+1/2, y+1/2, z'
loop_
_atom_type_symbol
_atom_type_oxidation_number
La0+ 0
Sn0+ 0
loop_
_atom_site_label
_atom_site_type_symbol
_atom_site_symmetry_multiplicity
_atom_site_Wyckoff_symbol
_atom_site_fract_x
_atom_site_fract_y
_atom_site_fract_z
_atom_site_B_iso_or_equiv
_atom_site_occupancy
_atom_site_attached_hydrogens
La1 La0+ 4 i 0 0.2968(3) 0 0.0085(11) 1. 0
La2 La0+ 4 i 0 0.4324(4) 0 0.0085(11) 1. 0
Sn1 Sn0+ 4 j 0 0.2216(4) 0.5 0.0217(7) 1. 0
Sn2 Sn0+ 4 i 0 0.1382(3) 0 0.0217(7) 1. 0
Sn3 Sn0+ 4 j 0 0.3628(3) 0.5 0.0217(7) 1. 0
Sn4 Sn0+ 4 j 0 0.0719(4) 0.5 0.0217(7) 1. 0
Sn5 Sn0+ 2 a 0 0 0 0.0217(7) 1. 0
Sn6 Sn0+ 2 c 0.5 0 0.5 0.0217(7) 1. 0
#End of TTdata_261871-ICSD