
#(C) 2017 by FIZ Karlsruhe - Leibniz Institute for Information Infrastructure.  All rights reserved.
data_261932-ICSD
_database_code_ICSD 261932
_audit_creation_date 2012-02-01
_chemical_name_systematic 'Nickel zinc boride (3/1/2)'
_chemical_formula_structural 'Ni3 Zn B2'
_chemical_formula_sum 'B2 Ni3 Zn1'
_exptl_crystal_density_diffrn 7.68
_cell_measurement_temperature 293.
_publ_section_title

;
Crystal structure of novel Ni-Zn borides: First observation of a boron-metal
nested cage unit: B20 Ni6
;
loop_
_citation_id
_citation_journal_full
_citation_year
_citation_journal_volume
_citation_page_first
_citation_page_last
_citation_journal_id_ASTM
primary 'Inorganic Chemistry' 2011 50 7669 7675 INOCAJ
loop_
_publ_author_name
'Malik, Z.P.'
'Sologub, O.'
'Grytsiv, A.'
'Giester, G.'
'Rogl, P.F.'
_cell_length_a 9.5101(4)
_cell_length_b 2.8921(4)
_cell_length_c 8.4366(3)
_cell_angle_alpha 90.
_cell_angle_beta 101.096(2)
_cell_angle_gamma 90.
_cell_volume 227.7
_cell_formula_units_Z 4
_symmetry_space_group_name_H-M 'C 1 2/m 1'
_symmetry_Int_Tables_number 12
_refine_ls_R_factor_all 0.0202
loop_
_symmetry_equiv_pos_site_id
_symmetry_equiv_pos_as_xyz
1 '-x, y, -z'
2 '-x, -y, -z'
3 'x, -y, z'
4 'x, y, z'
5 '-x+1/2, y+1/2, -z'
6 '-x+1/2, -y+1/2, -z'
7 'x+1/2, -y+1/2, z'
8 'x+1/2, y+1/2, z'
loop_
_atom_type_symbol
_atom_type_oxidation_number
Ni0+ 0
Zn0+ 0
B0+ 0
loop_
_atom_site_label
_atom_site_type_symbol
_atom_site_symmetry_multiplicity
_atom_site_Wyckoff_symbol
_atom_site_fract_x
_atom_site_fract_y
_atom_site_fract_z
_atom_site_B_iso_or_equiv
_atom_site_occupancy
_atom_site_attached_hydrogens
Ni1 Ni0+ 4 i 0.21879(5) 0. 0.25127(6) 0.00467(12) 1 0
Ni2 Ni0+ 4 i 0.49680(5) 0. 0.28968(6) 0.00506(12) 1 0
Ni3 Ni0+ 4 i 0.63894(5) 0. 0.00305(6) 0.00500(12) 1 0
Zn1 Zn0+ 4 i 0.13845(5) 0. 0.52534(5) 0.00642(12) 1 0
B1 B0+ 4 i 0.1550(4) 0. 0.8151(5) 0.0062(7) 1 0
B2 B0+ 4 i 0.0145(5) 0. 0.1119(5) 0.0069(7) 1 0
loop_
_atom_site_aniso_label
_atom_site_aniso_type_symbol
_atom_site_aniso_U_11
_atom_site_aniso_U_22
_atom_site_aniso_U_33
_atom_site_aniso_U_12
_atom_site_aniso_U_13
_atom_site_aniso_U_23
Ni1 Ni0+ 0.0041(2) 0.0057(2) 0.00413(19) 0. 0.00080(14) 0.
Ni2 Ni0+ 0.0049(2) 0.0053(2) 0.0051(2) 0. 0.00134(14) 0.
Ni3 Ni0+ 0.0050(2) 0.0052(2) 0.0048(2) 0. 0.00083(14) 0.
Zn1 Zn0+ 0.0068(2) 0.0080(2) 0.00452(19) 0. 0.00134(14) 0.
#End of TTdata_261932-ICSD