
#(C) 2017 by FIZ Karlsruhe - Leibniz Institute for Information Infrastructure.  All rights reserved.
data_262064-ICSD
_database_code_ICSD 262064
_audit_creation_date 2012-02-01
_chemical_name_systematic 'Lithium aluminium'
_chemical_formula_structural 'Li Al'
_chemical_formula_sum 'Al1 Li1'
_exptl_crystal_density_diffrn 1.77
_publ_section_title 'Revisiting the Zintl-Klemm concept: alkali metal trielides'
loop_
_citation_id
_citation_journal_full
_citation_year
_citation_journal_volume
_citation_page_first
_citation_page_last
_citation_journal_id_ASTM
primary 'Inorganic Chemistry' 2011 50 7625 7636 INOCAJ
loop_
_publ_author_name
'Wang Fei'
'Miller G.J.'
_cell_length_a 11.6509
_cell_length_b 11.3048
_cell_length_c 5.8009
_cell_angle_alpha 90.
_cell_angle_beta 90.
_cell_angle_gamma 90.
_cell_volume 764.04
_cell_formula_units_Z 24
_symmetry_space_group_name_H-M 'C m c e'
_symmetry_Int_Tables_number 64
loop_
_symmetry_equiv_pos_site_id
_symmetry_equiv_pos_as_xyz
1 '-x, -y+1/2, z+1/2'
2 '-x, y+1/2, -z+1/2'
3 '-x, y, z'
4 '-x, -y, -z'
5 'x, y+1/2, -z+1/2'
6 'x, -y+1/2, z+1/2'
7 'x, -y, -z'
8 'x, y, z'
9 '-x+1/2, -y, z+1/2'
10 '-x+1/2, y, -z+1/2'
11 '-x+1/2, y+1/2, z'
12 '-x+1/2, -y+1/2, -z'
13 'x+1/2, y, -z+1/2'
14 'x+1/2, -y, z+1/2'
15 'x+1/2, -y+1/2, -z'
16 'x+1/2, y+1/2, z'
loop_
_atom_type_symbol
_atom_type_oxidation_number
Li0+ 0
Al0+ 0
loop_
_atom_site_label
_atom_site_type_symbol
_atom_site_symmetry_multiplicity
_atom_site_Wyckoff_symbol
_atom_site_fract_x
_atom_site_fract_y
_atom_site_fract_z
_atom_site_B_iso_or_equiv
_atom_site_occupancy
_atom_site_attached_hydrogens
Li1 Li0+ 8 e 0.25 0.21478 0.25 . 1. 0
Li2 Li0+ 8 d -0.19046 0 0 . 1. 0
Li3 Li0+ 8 f 0 0.21684 -0.10627 . 1. 0
Al1 Al0+ 16 g 0.11975 0.38821 0.07862 . 1. 0
Al2 Al0+ 8 f 0 0.55378 0.2956 . 1. 0
#End of TTdata_262064-ICSD