
#(C) 2017 by FIZ Karlsruhe - Leibniz Institute for Information Infrastructure.  All rights reserved.
data_262347-ICSD
_database_code_ICSD 262347
_audit_creation_date 2012-08-01
_chemical_name_systematic 'Strontium iron oxygen fluoride (6/4/8/8)'
_chemical_formula_structural 'Sr6 Fe4 O8 F8'
_chemical_formula_sum 'F8 Fe4 O8 Sr6'
_exptl_crystal_density_diffrn 5.1
_publ_section_title

;
Low temperature fluorination of Sr3 Fe2 O(7-x) with polyvinylidine fluoride:
An X-ray powder diffraction and Moessbauer spectroscopy study
;
loop_
_citation_id
_citation_journal_full
_citation_year
_citation_journal_volume
_citation_page_first
_citation_page_last
_citation_journal_id_ASTM
primary 'Journal of Solid State Chemistry' 2012 186 195 203 JSSCBI
loop_
_publ_author_name
'Hancock, C.A.'
'Herranz, T.'
'Marco, J.F.'
'Berry, F.J.'
'Slater, P.R.'
_cell_length_a 5.6615(1)
_cell_length_b 5.5540(1)
_cell_length_c 21.3249(6)
_cell_angle_alpha 90.
_cell_angle_beta 90.
_cell_angle_gamma 90.
_cell_volume 670.54
_cell_formula_units_Z 2
_symmetry_space_group_name_H-M 'F 2 2 2'
_symmetry_Int_Tables_number 22
_refine_ls_R_factor_all 0.0376
loop_
_symmetry_equiv_pos_site_id
_symmetry_equiv_pos_as_xyz
1 '-x, y, -z'
2 'x, -y, -z'
3 '-x, -y, z'
4 'x, y, z'
5 '-x, y+1/2, -z+1/2'
6 'x, -y+1/2, -z+1/2'
7 '-x, -y+1/2, z+1/2'
8 'x, y+1/2, z+1/2'
9 '-x+1/2, y, -z+1/2'
10 'x+1/2, -y, -z+1/2'
11 '-x+1/2, -y, z+1/2'
12 'x+1/2, y, z+1/2'
13 '-x+1/2, y+1/2, -z'
14 'x+1/2, -y+1/2, -z'
15 '-x+1/2, -y+1/2, z'
16 'x+1/2, y+1/2, z'
loop_
_atom_type_symbol
_atom_type_oxidation_number
Sr2+ 2
Fe3+ 3
O2- -2
F1- -1
loop_
_atom_site_label
_atom_site_type_symbol
_atom_site_symmetry_multiplicity
_atom_site_Wyckoff_symbol
_atom_site_fract_x
_atom_site_fract_y
_atom_site_fract_z
_atom_site_B_iso_or_equiv
_atom_site_occupancy
_atom_site_attached_hydrogens
Sr1 Sr2+ 4 b 0 0 0.5 0.011(2) 1. 0
Sr2 Sr2+ 8 g 0 0 0.3177(2) 0.013(2) 1. 0
Fe1 Fe3+ 8 g 0 0 0.0877(4) 0.0020(2) 1. 0
O1 O2- 8 h 0.25 0.25 0.103(2) 0.052(3) 1. 0
O2 O2- 8 h 0.25 0.25 0.911(2) 0.052(3) 1. 0
F1 F1- 4 a 0 0 0 0.052(3) 1. 0
F2 F1- 8 g 0 0 0.189(1) 0.052(3) 1. 0
F3 F1- 4 d 0.25 0.25 0.75 0.052(3) 1. 0
#End of TTdata_262347-ICSD