
#(C) 2017 by FIZ Karlsruhe - Leibniz Institute for Information Infrastructure.  All rights reserved.
data_262646-ICSD
_database_code_ICSD 262646
_audit_creation_date 2012-08-01
_chemical_name_systematic 'Arsenic strontium stannide (6/5/2)'
_chemical_formula_structural 'As6 Sr5 Sn2'
_chemical_formula_sum 'As6 Sn2 Sr5'
_chemical_name_structure_type Ca5Ga2As6
_exptl_crystal_density_diffrn 4.99
_cell_measurement_temperature 150.
_publ_section_title

;
A5 Sn2 As6 (A = Sr, Eu). Synthesis, crystal and electronic structure, and
thermoelectric properties
;
loop_
_citation_id
_citation_journal_full
_citation_year
_citation_journal_volume
_citation_page_first
_citation_page_last
_citation_journal_id_ASTM
primary 'Inorganic Chemistry' 2012 51 5771 5778 INOCAJ
loop_
_publ_author_name
'Wang Jian'
'Xia Shengqing'
'Tao Xutang'
_cell_length_a 12.482(3)
_cell_length_b 14.137(3)
_cell_length_c 4.2440(10)
_cell_angle_alpha 90.
_cell_angle_beta 90.
_cell_angle_gamma 90.
_cell_volume 748.89
_cell_formula_units_Z 2
_symmetry_space_group_name_H-M 'P b a m'
_symmetry_Int_Tables_number 55
_refine_ls_R_factor_all 0.0341
loop_
_symmetry_equiv_pos_site_id
_symmetry_equiv_pos_as_xyz
1 'x+1/2, -y+1/2, z'
2 '-x+1/2, y+1/2, z'
3 'x, y, -z'
4 '-x, -y, -z'
5 '-x+1/2, y+1/2, -z'
6 'x+1/2, -y+1/2, -z'
7 '-x, -y, z'
8 'x, y, z'
loop_
_atom_type_symbol
_atom_type_oxidation_number
Sr0+ 0
Sn0+ 0
As0+ 0
loop_
_atom_site_label
_atom_site_type_symbol
_atom_site_symmetry_multiplicity
_atom_site_Wyckoff_symbol
_atom_site_fract_x
_atom_site_fract_y
_atom_site_fract_z
_atom_site_B_iso_or_equiv
_atom_site_occupancy
_atom_site_attached_hydrogens
Sr1 Sr0+ 4 g 0.12106(9) 0.24155(8) 0. 0.0127(3) 1 0
Sr2 Sr0+ 4 g 0.37091(10) 0.06835(8) 0. 0.0130(3) 1 0
Sr3 Sr0+ 2 a 0. 0. 0. 0.0119(4) 1 0
Sn1 Sn0+ 4 h 0.28548(7) 0.39549(6) 0.5 0.0112(2) 1 0
As1 As0+ 4 h 0.07675(10) 0.39704(10) 0.5 0.0129(3) 1 0
As2 As0+ 4 h 0.17039(11) 0.07710(8) 0.5 0.0116(3) 1 0
As3 As0+ 4 g 0.36831(10) 0.30433(9) 0. 0.0116(3) 1 0
loop_
_atom_site_aniso_label
_atom_site_aniso_type_symbol
_atom_site_aniso_U_11
_atom_site_aniso_U_22
_atom_site_aniso_U_33
_atom_site_aniso_U_12
_atom_site_aniso_U_13
_atom_site_aniso_U_23
Sr1 Sr0+ 0.0111(6) 0.0111(6) 0.0160(6) -0.0010(5) 0. 0.
Sr2 Sr0+ 0.0112(6) 0.0115(6) 0.0164(6) 0.0006(5) 0. 0.
Sr3 Sr0+ 0.0116(9) 0.0095(9) 0.0145(9) -0.0002(7) 0. 0.
Sn1 Sn0+ 0.0106(4) 0.0080(4) 0.0151(5) -0.0004(4) 0. 0.
As1 As0+ 0.0101(7) 0.0140(7) 0.0147(7) 0.0008(6) 0. 0.
As2 As0+ 0.0112(7) 0.0091(6) 0.0146(7) 0.0008(5) 0. 0.
As3 As0+ 0.0101(6) 0.0092(6) 0.0155(7) 0.0005(5) 0. 0.
#End of TTdata_262646-ICSD