
#(C) 2017 by FIZ Karlsruhe - Leibniz Institute for Information Infrastructure.  All rights reserved.
data_263005-ICSD
_database_code_ICSD 263005
_audit_creation_date 2013-02-01
_chemical_name_systematic 'Yttrium trisilicide'
_chemical_formula_structural 'Y Si3'
_chemical_formula_sum 'Si3 Y1'
_chemical_name_structure_type CaGe3
_exptl_crystal_density_diffrn 4.08
_cell_measurement_temperature 293.
_publ_section_title

;
Dumbbells of five-connected silicon atoms and superconductivity in the binary
silicides M Si3 (M = Ca, Y, Lu)
;
loop_
_citation_id
_citation_journal_full
_citation_year
_citation_journal_volume
_citation_page_first
_citation_page_last
_citation_journal_id_ASTM
primary 'Journal of the American Chemical Society' 2012 134 13558 13561 JACSAT
loop_
_publ_author_name
'Schwarz, U.'
'Wosylus, A.'
'Rosner, H.'
'Schnelle, W.'
'Ormeci, A.'
'Meier, K.'
'Baranov, A.'
'Nicklas, M.'
'Leipe, S.'
'Mueller, C.J.'
'Grin, Yu.'
_cell_length_a 7.2310(3)
_cell_length_b 7.2310(3)
_cell_length_c 10.792(1)
_cell_angle_alpha 90.
_cell_angle_beta 90.
_cell_angle_gamma 90.
_cell_volume 564.29
_cell_formula_units_Z 8
_symmetry_space_group_name_H-M 'I 4/m m m'
_symmetry_Int_Tables_number 139
_refine_ls_R_factor_all 0.083
loop_
_symmetry_equiv_pos_site_id
_symmetry_equiv_pos_as_xyz
1 'y, x, -z'
2 '-y, -x, -z'
3 '-y, x, -z'
4 'y, -x, -z'
5 '-x, y, -z'
6 'x, -y, -z'
7 'x, y, -z'
8 '-x, -y, -z'
9 '-y, -x, z'
10 'y, x, z'
11 'y, -x, z'
12 '-y, x, z'
13 'x, -y, z'
14 '-x, y, z'
15 '-x, -y, z'
16 'x, y, z'
17 'y+1/2, x+1/2, -z+1/2'
18 '-y+1/2, -x+1/2, -z+1/2'
19 '-y+1/2, x+1/2, -z+1/2'
20 'y+1/2, -x+1/2, -z+1/2'
21 '-x+1/2, y+1/2, -z+1/2'
22 'x+1/2, -y+1/2, -z+1/2'
23 'x+1/2, y+1/2, -z+1/2'
24 '-x+1/2, -y+1/2, -z+1/2'
25 '-y+1/2, -x+1/2, z+1/2'
26 'y+1/2, x+1/2, z+1/2'
27 'y+1/2, -x+1/2, z+1/2'
28 '-y+1/2, x+1/2, z+1/2'
29 'x+1/2, -y+1/2, z+1/2'
30 '-x+1/2, y+1/2, z+1/2'
31 '-x+1/2, -y+1/2, z+1/2'
32 'x+1/2, y+1/2, z+1/2'
loop_
_atom_type_symbol
_atom_type_oxidation_number
Y0+ 0
Si0+ 0
loop_
_atom_site_label
_atom_site_type_symbol
_atom_site_symmetry_multiplicity
_atom_site_Wyckoff_symbol
_atom_site_fract_x
_atom_site_fract_y
_atom_site_fract_z
_atom_site_B_iso_or_equiv
_atom_site_occupancy
_atom_site_attached_hydrogens
Y1 Y0+ 4 e 0 0 0.17050(9) 0.0066(3) 1. 0
Y2 Y0+ 4 d 0.5 0 0.25 0.0063(3) 1. 0
Si1 Si0+ 8 i 0.3295(3) 0 0 0.0102(5) 1. 0
Si2 Si0+ 16 m 0.3141(1) 0.3141(1) 0.1117(1) 0.0110(4) 1. 0
#End of TTdata_263005-ICSD