
#(C) 2017 by FIZ Karlsruhe - Leibniz Institute for Information Infrastructure.  All rights reserved.
data_263042-ICSD
_database_code_ICSD 263042
_audit_creation_date 2013-02-01
_chemical_name_systematic 'Tantalum ruthenium boride (7/6/8)'
_chemical_formula_structural 'Ta7 Ru6 B8'
_chemical_formula_sum 'B8 Ru6 Ta7'
_chemical_name_structure_type Nb7Ru6B8
_exptl_crystal_density_diffrn 13.36
_publ_section_title

;
TM7 TM'6 B8 (TM = Ta, Nb; TM' = Ru, Rh, Ir): New compounds with [B6] ring
polyanions
;
loop_
_citation_id
_citation_journal_full
_citation_year
_citation_journal_volume
_citation_page_first
_citation_page_last
_citation_journal_id_ASTM
primary 'Inorganic Chemistry' 2012 51 7472 7483 INOCAJ
loop_
_publ_author_name
'Zheng Qiang'
'Kohout, M.'
'Gumeniuk, R.'
'Abramchuk, N.'
'Borrmann, H.'
'Prots', Yu.'
'Burkhardt, U.'
'Schnelle, W.'
'Akselrud, L.'
'Gu Hui'
'Leithe-Jasper, A.'
'Grin', Yu.'
_cell_length_a 9.4695(3)
_cell_length_b 9.4695(3)
_cell_length_c 3.1370(2)
_cell_angle_alpha 90.
_cell_angle_beta 90.
_cell_angle_gamma 120.
_cell_volume 243.61
_cell_formula_units_Z 1
_symmetry_space_group_name_H-M 'P 6/m'
_symmetry_Int_Tables_number 175
_refine_ls_R_factor_all 0.038
loop_
_symmetry_equiv_pos_site_id
_symmetry_equiv_pos_as_xyz
1 '-x+y, -x, -z'
2 '-y, x-y, -z'
3 'x, y, -z'
4 'x-y, x, -z'
5 'y, -x+y, -z'
6 '-x, -y, -z'
7 'x-y, x, z'
8 'y, -x+y, z'
9 '-x, -y, z'
10 '-x+y, -x, z'
11 '-y, x-y, z'
12 'x, y, z'
loop_
_atom_type_symbol
_atom_type_oxidation_number
Ta0+ 0
Ru0+ 0
B0+ 0
loop_
_atom_site_label
_atom_site_type_symbol
_atom_site_symmetry_multiplicity
_atom_site_Wyckoff_symbol
_atom_site_fract_x
_atom_site_fract_y
_atom_site_fract_z
_atom_site_B_iso_or_equiv
_atom_site_occupancy
_atom_site_attached_hydrogens
Ta1 Ta0+ 1 a 0 0 0 0.128(3) 1. 0
Ta2 Ta0+ 6 j 0.08648(2) 0.36398(2) 0 0.192(3) 1. 0
Ru1 Ru0+ 6 k 0.51327(3) 0.15406(3) 0.5 0.170(4) 1. 0
B1 B0+ 2 c 0.3333 0.6667 0 0.52(8) 1. 0
B2 B0+ 6 k 0.2221(5) 0.0662(4) 0.5 0.29(7) 1. 0
loop_
_atom_site_aniso_label
_atom_site_aniso_type_symbol
_atom_site_aniso_B_11
_atom_site_aniso_B_22
_atom_site_aniso_B_33
_atom_site_aniso_B_12
_atom_site_aniso_B_13
_atom_site_aniso_B_23
Ta1 Ta0+ 0.150(4) 0.150(4) 0.045(5) .075 0. 0.
Ta2 Ta0+ 0.187(3) 0.263(3) 0.118(2) 0.106(2) 0. 0.
Ru1 Ru0+ 0.142(5) 0.155(5) 0.207(4) 0.071(4) 0. 0.
B1 B0+ 0.4(1) 0.4(1) 0.6(1) 0.2(1) 0. 0.
B2 B0+ 0.68(9) 0.09(7) 0.24(6) 0.27(7) 0. 0.
#End of TTdata_263042-ICSD