
#(C) 2017 by FIZ Karlsruhe - Leibniz Institute for Information Infrastructure.  All rights reserved.
data_26340-ICSD
_database_code_ICSD 26340
_audit_creation_date 1981-12-31
_audit_update_record 2012-08-01
_chemical_name_systematic 'Mercury germanate'
_chemical_formula_structural 'Hg2 Ge O4'
_chemical_formula_sum 'Ge1 Hg2 O4'
_chemical_name_structure_type Na2SO4
_exptl_crystal_density_diffrn 8.89
_publ_section_title 'Structure of Dimercury(II) Germanate(IV)'
loop_
_citation_id
_citation_journal_full
_citation_year
_citation_journal_volume
_citation_page_first
_citation_page_last
_citation_journal_id_ASTM
primary 'Acta Crystallographica B (24,1968-38,1982)' 1981 37 429 431 ACBCAR
loop_
_publ_author_name
'Hesse, K.F.'
'Eysel, W.'
_cell_length_a 6.603(1)
_cell_length_b 10.596(2)
_cell_length_c 11.485(2)
_cell_angle_alpha 90.
_cell_angle_beta 90.
_cell_angle_gamma 90.
_cell_volume 803.55
_cell_formula_units_Z 8
_symmetry_space_group_name_H-M 'F d d d Z'
_symmetry_Int_Tables_number 70
_refine_ls_R_factor_all 0.061
loop_
_symmetry_equiv_pos_site_id
_symmetry_equiv_pos_as_xyz
1 'x+3/4, y+3/4, -z'
2 'x+3/4, -y, z+3/4'
3 '-x, y+3/4, z+3/4'
4 '-x, -y, -z'
5 '-x+1/4, -y+1/4, z'
6 '-x+1/4, y, -z+1/4'
7 'x, -y+1/4, -z+1/4'
8 'x, y, z'
9 'x+3/4, y+1/4, -z+1/2'
10 'x+3/4, -y+1/2, z+1/4'
11 '-x, y+1/4, z+1/4'
12 '-x, -y+1/2, -z+1/2'
13 '-x+1/4, -y+3/4, z+1/2'
14 '-x+1/4, y+1/2, -z+3/4'
15 'x, -y+3/4, -z+3/4'
16 'x, y+1/2, z+1/2'
17 'x+1/4, y+3/4, -z+1/2'
18 'x+1/4, -y, z+1/4'
19 '-x+1/2, y+3/4, z+1/4'
20 '-x+1/2, -y, -z+1/2'
21 '-x+3/4, -y+1/4, z+1/2'
22 '-x+3/4, y, -z+3/4'
23 'x+1/2, -y+1/4, -z+3/4'
24 'x+1/2, y, z+1/2'
25 'x+1/4, y+1/4, -z'
26 'x+1/4, -y+1/2, z+3/4'
27 '-x+1/2, y+1/4, z+3/4'
28 '-x+1/2, -y+1/2, -z'
29 '-x+3/4, -y+3/4, z'
30 '-x+3/4, y+1/2, -z+1/4'
31 'x+1/2, -y+3/4, -z+1/4'
32 'x+1/2, y+1/2, z'
loop_
_atom_type_symbol
_atom_type_oxidation_number
Hg2+ 2
Ge4+ 4
O2- -2
loop_
_atom_site_label
_atom_site_type_symbol
_atom_site_symmetry_multiplicity
_atom_site_Wyckoff_symbol
_atom_site_fract_x
_atom_site_fract_y
_atom_site_fract_z
_atom_site_B_iso_or_equiv
_atom_site_occupancy
_atom_site_attached_hydrogens
Hg1 Hg2+ 16 f 0.125 0.4472(1) 0.125 . 1. 0
Ge1 Ge4+ 8 a 0.125 0.125 0.125 . 1. 0
O1 O2- 32 h -.0171(27) 0.2320(14) 0.0420(14) . 1. 0
loop_
_atom_site_aniso_label
_atom_site_aniso_type_symbol
_atom_site_aniso_U_11
_atom_site_aniso_U_22
_atom_site_aniso_U_33
_atom_site_aniso_U_12
_atom_site_aniso_U_13
_atom_site_aniso_U_23
Hg1 Hg2+ 0.0109(4) 0.0081(3) 0.0055(3) 0 0.0017(6) 0
Ge1 Ge4+ 0.0088(17) 0.0011(12) 0.0058(15) 0 0 0
O1 O2- 0.0167(79) 0.0069(58) 0.0046(58) 0.0003(43) -.0023(53) 0.001(5)
#End of TTdata_26340-ICSD