
#(C) 2017 by FIZ Karlsruhe - Leibniz Institute for Information Infrastructure.  All rights reserved.
data_26418-ICSD
_database_code_ICSD 26418
_audit_creation_date 1981-12-31
_chemical_name_systematic 'Zirconium(II) iodide - alpha'
_chemical_formula_structural 'Zr I2'
_chemical_formula_sum 'I2 Zr1'
_chemical_name_structure_type MoTe2
_exptl_crystal_density_diffrn 6.04
_publ_section_title
'Synthesis and Structure of an Infinite-Chain Form of Zr I2 (alpha)'
loop_
_citation_id
_citation_journal_full
_citation_year
_citation_journal_volume
_citation_page_first
_citation_page_last
_citation_journal_id_ASTM
primary 'Journal of Solid State Chemistry' 1981 37 256 263 JSSCBI
loop_
_publ_author_name
'Guthrie, D.H.'
'Corbett, J.D.'
_cell_length_a 6.821(2)
_cell_length_b 3.741(1)
_cell_length_c 14.937(3)
_cell_angle_alpha 90.
_cell_angle_beta 95.66(3)
_cell_angle_gamma 90.
_cell_volume 379.29
_cell_formula_units_Z 4
_symmetry_space_group_name_H-M 'P 1 21/m 1'
_symmetry_Int_Tables_number 11
_refine_ls_R_factor_all 0.064
loop_
_symmetry_equiv_pos_site_id
_symmetry_equiv_pos_as_xyz
1 'x, -y+1/2, z'
2 '-x, -y, -z'
3 '-x, y+1/2, -z'
4 'x, y, z'
loop_
_atom_type_symbol
_atom_type_oxidation_number
I1- -1
Zr2+ 2
loop_
_atom_site_label
_atom_site_type_symbol
_atom_site_symmetry_multiplicity
_atom_site_Wyckoff_symbol
_atom_site_fract_x
_atom_site_fract_y
_atom_site_fract_z
_atom_site_B_iso_or_equiv
_atom_site_occupancy
_atom_site_attached_hydrogens
I1 I1- 2 e 0.6031(3) 0.25 0.6095(1) . 1. 0
I2 I1- 2 e 0.4498(3) 0.25 0.1473(1) . 1. 0
I3 I1- 2 e 0.8881(3) 0.25 0.3528(1) . 1. 0
I4 I1- 2 e 0.0545(3) 0.25 0.8901(1) . 1. 0
Zr1 Zr2+ 2 e 0.1892(4) 0.25 0.5036(2) . 1. 0
Zr2 Zr2+ 2 e 0.6880(4) 0.25 0.9969(2) . 1. 0
loop_
_atom_site_aniso_label
_atom_site_aniso_type_symbol
_atom_site_aniso_B_11
_atom_site_aniso_B_22
_atom_site_aniso_B_33
_atom_site_aniso_B_12
_atom_site_aniso_B_13
_atom_site_aniso_B_23
I1 I1- 1.13(6) 0.53(6) 1.42(7) 0 0.07(2) 0
I2 I1- 1.47(7) 0.62(6) 1.18(7) 0 0.02(2) 0
I3 I1- 1.34(7) 0.57(6) 1.30(7) 0 -.05(2) 0
I4 I1- 1.17(7) 0.58(7) 1.39(7) 0 -.02(2) 0
Zr1 Zr2+ 0.93(9) 0.76(8) 1.44(9) 0 0.00(3) 0
Zr2 Zr2+ 0.95(9) 0.81(8) 1.26(7) 0 -.01(3) 0
#End of TTdata_26418-ICSD