
#(C) 2017 by FIZ Karlsruhe - Leibniz Institute for Information Infrastructure.  All rights reserved.
data_26519-ICSD
_database_code_ICSD 26519
_audit_creation_date 1980-01-01
_audit_update_record 2013-02-01
_chemical_name_systematic 'Silver diselenobismuthate(III)'
_chemical_formula_structural 'Ag (Bi Se2)'
_chemical_formula_sum 'Ag1 Bi1 Se2'
_chemical_name_structure_type AgBiSe2
_chemical_name_mineral 'Bohdanowiczite intermediate'
_exptl_crystal_density_diffrn 7.95
_cell_measurement_temperature 298.
_publ_section_title

;
Ternary semiconducting compounds with sodium chloride-like structure: Ag Sb
Se2, Ag Sb Te2, Ag Bi S2, Ag Bi Se2
;
loop_
_citation_id
_citation_journal_full
_citation_year
_citation_journal_volume
_citation_page_first
_citation_page_last
_citation_journal_id_ASTM
primary 'Acta Crystallographica (1,1948-23,1967)' 1959 12 46 54 ACCRA9
loop_
_publ_author_name
'Geller, S.'
'Wernick, J.H.'
_cell_length_a 4.18(2)
_cell_length_b 4.18(2)
_cell_length_c 19.67(5)
_cell_angle_alpha 90.
_cell_angle_beta 90.
_cell_angle_gamma 120.
_cell_volume 297.64
_cell_formula_units_Z 3
_symmetry_space_group_name_H-M 'P -3 m 1'
_symmetry_Int_Tables_number 164
loop_
_symmetry_equiv_pos_site_id
_symmetry_equiv_pos_as_xyz
1 'x-y, -y, -z'
2 '-x, -x+y, -z'
3 'y, x, -z'
4 'x-y, x, -z'
5 'y, -x+y, -z'
6 '-x, -y, -z'
7 '-x+y, y, z'
8 'x, x-y, z'
9 '-y, -x, z'
10 '-x+y, -x, z'
11 '-y, x-y, z'
12 'x, y, z'
loop_
_atom_type_symbol
_atom_type_oxidation_number
Ag1+ 1
Bi3+ 3
Ag1+ 1
Bi3+ 3
Se2- -2
loop_
_atom_site_label
_atom_site_type_symbol
_atom_site_symmetry_multiplicity
_atom_site_Wyckoff_symbol
_atom_site_fract_x
_atom_site_fract_y
_atom_site_fract_z
_atom_site_B_iso_or_equiv
_atom_site_occupancy
_atom_site_attached_hydrogens
Ag1 Ag1+ 1 a 0 0 0 0.5 1. 0
Bi1 Bi3+ 1 b 0 0 0.5 0.5 1. 0
Ag2 Ag1+ 2 d 0.3333 0.6667 -.328 0.5 1. 0
Bi2 Bi3+ 2 d 0.3333 0.6667 0.163 0.5 1. 0
Se1 Se2- 2 c 0 0 0.253 0.5 1. 0
Se2 Se2- 2 d 0.3333 0.6667 -.074 0.5 1. 0
Se3 Se2- 2 d 0.3333 0.6667 0.406 0.5 1. 0
#End of TTdata_26519-ICSD