
data_26575-ICSD
_database_code_ICSD 26575
_audit_creation_date 1985-10-03
_audit_update_record 2006-04-01
_chemical_name_systematic 'Disodium peroxide'
_chemical_formula_structural 'Na2 O2'
_chemical_formula_sum 'Na2 O2'
_chemical_name_structure_type Na2O2
_exptl_crystal_density_diffrn 2.59
_cell_length_a 6.22(1)
_cell_length_b 6.22(1)
_cell_length_c 4.47(1)
_cell_angle_alpha 90.
_cell_angle_beta 90.
_cell_angle_gamma 120.
_cell_volume 149.77
_cell_formula_units_Z 3
_symmetry_space_group_name_H-M 'P -6 2 m'
_symmetry_Int_Tables_number 189
loop_
_symmetry_equiv_pos_site_id
_symmetry_equiv_pos_as_xyz
1 '-x, -x+y, -z'
2 'x-y, -y, -z'
3 'y, x, -z'
4 '-x, -x+y, z'
5 'x-y, -y, z'
6 'y, x, z'
7 '-x+y, -x, -z'
8 '-y, x-y, -z'
9 'x, y, -z'
10 '-x+y, -x, z'
11 '-y, x-y, z'
12 'x, y, z'
loop_
_atom_type_symbol
_atom_type_oxidation_number
O1- -1
Na1+ 1
loop_
_atom_site_label
_atom_site_type_symbol
_atom_site_symmetry_multiplicity
_atom_site_Wyckoff_symbol
_atom_site_fract_x
_atom_site_fract_y
_atom_site_fract_z
_atom_site_B_iso_or_equiv
_atom_site_occupancy
_atom_site_attached_hydrogens
O1 O1- 2 e 0 0 0.167 . 1. 0
O2 O1- 4 h 0.3333 0.6667 0.333 . 1. 0
Na1 Na1+ 3 g 0.724 0 0.5 . 1. 0
Na2 Na1+ 3 f 0.366 0 0 . 1. 0
