
#(C) 2017 by FIZ Karlsruhe - Leibniz Institute for Information Infrastructure.  All rights reserved.
data_26771-ICSD
_database_code_ICSD 26771
_audit_creation_date 1980-01-01
_audit_update_record 2006-04-01
_chemical_name_systematic 'Ammonium azide'
_chemical_formula_structural '(N H4) N3'
_chemical_formula_sum 'H4 N4'
_exptl_crystal_density_diffrn 1.36
_publ_section_title 'The crystal structure of ammonium azide, N H4 N3'
loop_
_citation_id
_citation_journal_full
_citation_year
_citation_journal_volume
_citation_page_first
_citation_page_last
_citation_journal_id_ASTM
primary

;
Zeitschrift fuer Kristallographie, Kristallgeometrie, Kristallphysik,
Kristallchemie (-144,1977)
; 1936 94 197 211 ZEKGAX
loop_
_publ_author_name
'Frevel, L.K.'
_cell_length_a 8.930(3)
_cell_length_b 8.642(3)
_cell_length_c 3.800(2)
_cell_angle_alpha 90.
_cell_angle_beta 90.
_cell_angle_gamma 90.
_cell_volume 293.26
_cell_formula_units_Z 4
_symmetry_space_group_name_H-M 'P m a n'
_symmetry_Int_Tables_number 53
loop_
_symmetry_equiv_pos_site_id
_symmetry_equiv_pos_as_xyz
1 'x+1/2, -y+1/2, z'
2 'x+1/2, y+1/2, -z'
3 '-x, y, z'
4 '-x, -y, -z'
5 '-x+1/2, y+1/2, -z'
6 '-x+1/2, -y+1/2, z'
7 'x, -y, -z'
8 'x, y, z'
loop_
_atom_type_symbol
_atom_type_oxidation_number
N0+ -0.33
N3- -3
H1+ 1
loop_
_atom_site_label
_atom_site_type_symbol
_atom_site_symmetry_multiplicity
_atom_site_Wyckoff_symbol
_atom_site_fract_x
_atom_site_fract_y
_atom_site_fract_z
_atom_site_B_iso_or_equiv
_atom_site_occupancy
_atom_site_attached_hydrogens
N1 N0+ 2 a 0 0 0 . 1. 0
N2 N0+ 2 b 0.5 0 0 . 1. 0
N3 N0+ 4 e 0.131(2) 0 0 . 1. 0
N4 N0+ 4 h 0.5 0.123(2) 0.120(7) . 1. 0
N5 N3- 4 g 0.25 0.25 0.533(3) . 1. 0
#End of TTdata_26771-ICSD