
#(C) 2017 by FIZ Karlsruhe - Leibniz Institute for Information Infrastructure.  All rights reserved.
data_26810-ICSD
_database_code_ICSD 26810
_audit_creation_date 1980-01-01
_audit_update_record 2005-10-01
_chemical_name_systematic 'Rhodium selenide (3/8)'
_chemical_formula_structural 'Rh3 Se8'
_chemical_formula_sum 'Rh3 Se8'
_chemical_name_structure_type Rh3Te8
_exptl_crystal_density_diffrn 7.32
_publ_section_title 'The crystal structure of pyrite-related Rh3 Se8'
loop_
_citation_id
_citation_journal_full
_citation_year
_citation_journal_volume
_citation_page_first
_citation_page_last
_citation_journal_id_ASTM
primary

;
Zeitschrift fuer Kristallographie, Kristallgeometrie, Kristallphysik,
Kristallchemie (-144,1977)
; 1968 127 164 172 ZEKGAX
loop_
_publ_author_name
'Hohnke, D.'
'Parthe, E.'
_cell_length_a 5.9648(6)
_cell_length_b 5.9648(6)
_cell_length_c 5.9648(6)
_cell_angle_alpha 90.744(17)
_cell_angle_beta 90.744(17)
_cell_angle_gamma 90.744(17)
_cell_volume 212.17
_cell_formula_units_Z 1
_symmetry_space_group_name_H-M 'R -3 R'
_symmetry_Int_Tables_number 148
_refine_ls_R_factor_all 0.035
loop_
_symmetry_equiv_pos_site_id
_symmetry_equiv_pos_as_xyz
1 '-z, -x, -y'
2 '-y, -z, -x'
3 '-x, -y, -z'
4 'z, x, y'
5 'y, z, x'
6 'x, y, z'
loop_
_atom_type_symbol
_atom_type_oxidation_number
Rh0+ 0
Se0+ 0
loop_
_atom_site_label
_atom_site_type_symbol
_atom_site_symmetry_multiplicity
_atom_site_Wyckoff_symbol
_atom_site_fract_x
_atom_site_fract_y
_atom_site_fract_z
_atom_site_B_iso_or_equiv
_atom_site_occupancy
_atom_site_attached_hydrogens
Rh1 Rh0+ 3 e 0 0.5 0.5 0.30(17) 1. 0
Se1 Se0+ 2 c 0.3816(45) 0.3816(45) 0.3816(45) 0.30(17) 1. 0
Se2 Se0+ 6 f 0.8877(23) 0.1166(19) 0.6204(15) 0.30(17) 1. 0
#End of TTdata_26810-ICSD