
#(C) 2017 by FIZ Karlsruhe - Leibniz Institute for Information Infrastructure.  All rights reserved.
data_27014-ICSD
_database_code_ICSD 27014
_audit_creation_date 1980-01-01
_audit_update_record 1988-04-08
_chemical_name_systematic 'Barium dinickel arsenate'
_chemical_formula_structural 'Ba Ni2 (As O4)2'
_chemical_formula_sum 'As2 Ba1 Ni2 O8'
_chemical_name_structure_type BaNi2V2O8
_exptl_crystal_density_diffrn 5.31
_publ_section_title
'Structure cristalline du monoarseniate de nickelbaryum: Ba Ni2 (As O4)2'
loop_
_citation_id
_citation_journal_full
_citation_year
_citation_journal_volume
_citation_page_first
_citation_page_last
_citation_journal_id_ASTM
primary

;
Comptes Rendus Hebdomadaires des Seances de l'Academie des Sciences, Serie C,
Sciences Chimiques (1966-)
; 1969 268 1694 1696 CHDCAQ
loop_
_publ_author_name
'Eymond, S.'
'Durif, A.'
'Martin, C.'
_cell_length_a 4.945(5)
_cell_length_b 4.945(5)
_cell_length_c 23.61(2)
_cell_angle_alpha 90.
_cell_angle_beta 90.
_cell_angle_gamma 120.
_cell_volume 499.99
_cell_formula_units_Z 3
_symmetry_space_group_name_H-M 'R -3 H'
_symmetry_Int_Tables_number 148
_refine_ls_R_factor_all 0.106
loop_
_symmetry_equiv_pos_site_id
_symmetry_equiv_pos_as_xyz
1 'x-y, x, -z'
2 'y, -x+y, -z'
3 '-x, -y, -z'
4 '-x+y, -x, z'
5 '-y, x-y, z'
6 'x, y, z'
7 'x-y+2/3, x+1/3, -z+1/3'
8 'y+2/3, -x+y+1/3, -z+1/3'
9 '-x+2/3, -y+1/3, -z+1/3'
10 '-x+y+2/3, -x+1/3, z+1/3'
11 '-y+2/3, x-y+1/3, z+1/3'
12 'x+2/3, y+1/3, z+1/3'
13 'x-y+1/3, x+2/3, -z+2/3'
14 'y+1/3, -x+y+2/3, -z+2/3'
15 '-x+1/3, -y+2/3, -z+2/3'
16 '-x+y+1/3, -x+2/3, z+2/3'
17 '-y+1/3, x-y+2/3, z+2/3'
18 'x+1/3, y+2/3, z+2/3'
loop_
_atom_type_symbol
_atom_type_oxidation_number
Ba2+ 2
As5+ 5
Ni2+ 2
O2- -2
loop_
_atom_site_label
_atom_site_type_symbol
_atom_site_symmetry_multiplicity
_atom_site_Wyckoff_symbol
_atom_site_fract_x
_atom_site_fract_y
_atom_site_fract_z
_atom_site_B_iso_or_equiv
_atom_site_occupancy
_atom_site_attached_hydrogens
Ba1 Ba2+ 3 a 0 0 0 . 1. 0
As1 As5+ 6 c 0 0 0.427 . 1. 0
Ni1 Ni2+ 6 c 0 0 0.167 . 1. 0
O1 O2- 6 c 0 0 0.355 . 1. 0
O2 O2- 18 f 0.328 0.328 0.113 . 1. 0
#End of TTdata_27014-ICSD