
data_27138-ICSD
_database_code_ICSD 27138
_audit_creation_date 1980-01-01
_audit_update_record 2005-10-01
_chemical_name_systematic 'Sodium isocyanate'
_chemical_formula_structural 'Na (O C N)'
_chemical_formula_sum 'C1 N1 Na1 O1'
_chemical_name_structure_type NaN3(beta)
_exptl_crystal_density_diffrn 1.94
_cell_length_a 5.44(1)
_cell_length_b 5.44(1)
_cell_length_c 5.44(1)
_cell_angle_alpha 38.37(7)
_cell_angle_beta 38.37(7)
_cell_angle_gamma 38.37(7)
_cell_volume 55.72
_cell_formula_units_Z 1
_symmetry_space_group_name_H-M 'R 3 m R'
_symmetry_Int_Tables_number 160
loop_
_symmetry_equiv_pos_site_id
_symmetry_equiv_pos_as_xyz
1 'z, y, x'
2 'z, x, y'
3 'x, z, y'
4 'y, z, x'
5 'y, x, z'
6 'x, y, z'
loop_
_atom_type_symbol
_atom_type_oxidation_number
Na1+ 1
O2- -2
C4+ 4
N3- -3
loop_
_atom_site_label
_atom_site_type_symbol
_atom_site_symmetry_multiplicity
_atom_site_Wyckoff_symbol
_atom_site_fract_x
_atom_site_fract_y
_atom_site_fract_z
_atom_site_B_iso_or_equiv
_atom_site_occupancy
_atom_site_attached_hydrogens
Na1 Na1+ 1 a 0.5 0.5 0.5 . 1. 0
O1 O2- 1 a -.08 -.08 -.08 . 1. 0
C1 C4+ 1 a -.005 -.005 -.005 . 1. 0
N1 N3- 1 a 0.075 0.075 0.075 . 1. 0
