
#(C) 2017 by FIZ Karlsruhe - Leibniz Institute for Information Infrastructure.  All rights reserved.
data_27151-ICSD
_database_code_ICSD 27151
_audit_creation_date 1980-01-01
_audit_update_record 2005-10-01
_chemical_name_systematic 'Bismuth oxide'
_chemical_formula_structural 'Bi2 O3'
_chemical_formula_sum 'Bi2 O3'
_chemical_name_structure_type Bi2O3(tP20)
_exptl_crystal_density_diffrn 9.22
_publ_section_title 'X-ray studies on bismuth trioxide'
loop_
_citation_id
_citation_journal_full
_citation_year
_citation_journal_volume
_citation_page_first
_citation_page_last
_citation_journal_id_ASTM
primary 'Arkiv foer Kemi, Mineralogi och Geologi, A' 1938 12 1 15 ARKGAJ
loop_
_publ_author_name
'Sillen, L.G.'
_cell_length_a 10.93
_cell_length_b 10.93
_cell_length_c 5.62
_cell_angle_alpha 90.
_cell_angle_beta 90.
_cell_angle_gamma 90.
_cell_volume 671.39
_cell_formula_units_Z 8
_symmetry_space_group_name_H-M 'C -4 2 b'
_symmetry_Int_Tables_number 117
loop_
_symmetry_equiv_pos_site_id
_symmetry_equiv_pos_as_xyz
1 '-y, -x+1/2, z'
2 'x, -y+1/2, -z'
3 'y, x+1/2, z'
4 '-x, y+1/2, -z'
5 'y, -x, -z'
6 '-y, x, -z'
7 '-x, -y, z'
8 'x, y, z'
9 '-y+1/2, -x, z'
10 'x+1/2, -y, -z'
11 'y+1/2, x, z'
12 '-x+1/2, y, -z'
13 'y+1/2, -x+1/2, -z'
14 '-y+1/2, x+1/2, -z'
15 '-x+1/2, -y+1/2, z'
16 'x+1/2, y+1/2, z'
loop_
_atom_type_symbol
_atom_type_oxidation_number
Bi3+ 3
O2- -2
loop_
_atom_site_label
_atom_site_type_symbol
_atom_site_symmetry_multiplicity
_atom_site_Wyckoff_symbol
_atom_site_fract_x
_atom_site_fract_y
_atom_site_fract_z
_atom_site_B_iso_or_equiv
_atom_site_occupancy
_atom_site_attached_hydrogens
Bi1 Bi3+ 16 i 0.1362(12) 0.1138(12) 0.25 . 1. 0
O1 O2- 8 g 0.0224 0.25 0 . 1. 0
O2 O2- 8 h 0.0224 0.25 0.5 . 1. 0
O3 O2- 4 c 0.25 0.25 0 . 1. 0
O4 O2- 4 b 0 0 0.5 . 1. 0
#End of TTdata_27151-ICSD