
#(C) 2017 by FIZ Karlsruhe - Leibniz Institute for Information Infrastructure.  All rights reserved.
data_27408-ICSD
_database_code_ICSD 27408
_audit_creation_date 1980-01-01
_audit_update_record 2007-04-01
_chemical_name_systematic 'Dicopper oxide sulfate(VI)'
_chemical_formula_structural 'Cu2 O (S O4)'
_chemical_formula_sum 'Cu2 O5 S1'
_chemical_name_structure_type Cu2OSO4
_chemical_name_mineral Dolerophane
_exptl_crystal_density_diffrn 4.17
_publ_section_title

;
Die Kristallstruktur von Dolerophanit, Cu2 O (S O4), ein Beispiel fuer
5-koordiniertes Kupfer
;
loop_
_citation_id
_citation_journal_full
_citation_year
_citation_journal_volume
_citation_page_first
_citation_page_last
_citation_journal_id_ASTM
primary Naturwissenschaften 1962 49 298 298 NATWAY
loop_
_publ_author_name
'Kahler, E.'
_cell_length_a 9.355(10)
_cell_length_b 6.312(5)
_cell_length_c 7.628(5)
_cell_angle_alpha 90.
_cell_angle_beta 122.29
_cell_angle_gamma 90.
_cell_volume 380.77
_cell_formula_units_Z 4
_symmetry_space_group_name_H-M 'C 1 2/m 1'
_symmetry_Int_Tables_number 12
_refine_ls_R_factor_all 0.1
loop_
_symmetry_equiv_pos_site_id
_symmetry_equiv_pos_as_xyz
1 '-x, y, -z'
2 '-x, -y, -z'
3 'x, -y, z'
4 'x, y, z'
5 '-x+1/2, y+1/2, -z'
6 '-x+1/2, -y+1/2, -z'
7 'x+1/2, -y+1/2, z'
8 'x+1/2, y+1/2, z'
loop_
_atom_type_symbol
_atom_type_oxidation_number
Cu2+ 2
S6+ 6
O2- -2
loop_
_atom_site_label
_atom_site_type_symbol
_atom_site_symmetry_multiplicity
_atom_site_Wyckoff_symbol
_atom_site_fract_x
_atom_site_fract_y
_atom_site_fract_z
_atom_site_B_iso_or_equiv
_atom_site_occupancy
_atom_site_attached_hydrogens
Cu1 Cu2+ 4 e 0.25 0.25 0 . 1. 0
Cu2 Cu2+ 4 i 0.073 0 0.218 . 1. 0
S1 S6+ 4 i 0.101 0.5 0.316 . 1. 0
O1 O2- 4 i 0.201 0.5 0.222 . 1. 0
O2 O2- 4 i 0.293 0 0.446 . 1. 0
O3 O2- 4 i 0.157 0 0.025 . 1. 0
O4 O2- 8 j 0.491 0.189 0.247 . 1. 0
#End of TTdata_27408-ICSD