
#(C) 2017 by FIZ Karlsruhe - Leibniz Institute for Information Infrastructure.  All rights reserved.
data_27496-ICSD
_database_code_ICSD 27496
_audit_creation_date 1980-01-01
_audit_update_record 2010-08-01
_chemical_name_systematic 'Tribarium strontium ditantalum nonaoxide'
_chemical_formula_structural 'Ba3 Sr Ta2 O9'
_chemical_formula_sum 'Ba3 O9 Sr1 Ta2'
_chemical_name_structure_type Ba3SrTa2O9
_exptl_crystal_density_diffrn 7.29
_publ_section_title

;
Alkaline earth-tantalum-oxygen phases including the crystal structure of an
ordered perovskite compound, Ba3 Sr Ta2 O9
;
loop_
_citation_id
_citation_journal_full
_citation_year
_citation_journal_volume
_citation_page_first
_citation_page_last
_citation_journal_id_ASTM
primary 'Journal of the American Chemical Society' 1961 83 2830 2832 JACSAT
loop_
_publ_author_name
'Galasso, F.'
'Barrante, J.R.'
'Katz, L.'
_cell_length_a 5.95
_cell_length_b 5.95
_cell_length_c 7.47
_cell_angle_alpha 90.
_cell_angle_beta 90.
_cell_angle_gamma 120.
_cell_volume 229.03
_cell_formula_units_Z 1
_symmetry_space_group_name_H-M 'P -3 m 1'
_symmetry_Int_Tables_number 164
loop_
_symmetry_equiv_pos_site_id
_symmetry_equiv_pos_as_xyz
1 'x-y, -y, -z'
2 '-x, -x+y, -z'
3 'y, x, -z'
4 'x-y, x, -z'
5 'y, -x+y, -z'
6 '-x, -y, -z'
7 '-x+y, y, z'
8 'x, x-y, z'
9 '-y, -x, z'
10 '-x+y, -x, z'
11 '-y, x-y, z'
12 'x, y, z'
loop_
_atom_type_symbol
_atom_type_oxidation_number
Ba2+ 2
Sr2+ 2
Ta5+ 5
O2- -2
loop_
_atom_site_label
_atom_site_type_symbol
_atom_site_symmetry_multiplicity
_atom_site_Wyckoff_symbol
_atom_site_fract_x
_atom_site_fract_y
_atom_site_fract_z
_atom_site_B_iso_or_equiv
_atom_site_occupancy
_atom_site_attached_hydrogens
Ba1 Ba2+ 1 a 0 0 0 . 1. 0
Ba2 Ba2+ 2 d 0.3333 0.6667 0.6667 . 1. 0
Sr1 Sr2+ 1 b 0 0 0.5 . 1. 0
Ta1 Ta5+ 2 d 0.3333 0.6667 0.1667 . 1. 0
O1 O2- 6 i 0.1667 -.1667 0.3333 . 1. 0
O2 O2- 3 e 0.5 0 0 . 1. 0
#End of TTdata_27496-ICSD