
#(C) 2017 by FIZ Karlsruhe - Leibniz Institute for Information Infrastructure.  All rights reserved.
data_27956-ICSD
_database_code_ICSD 27956
_audit_creation_date 1980-01-01
_audit_update_record 2016-02-01
_chemical_name_systematic 'Potassium sulfate(VI) - alpha, HT'
_chemical_formula_structural 'K2 (S O4)'
_chemical_formula_sum 'K2 O4 S1'
_chemical_name_structure_type K3Na(SO4)2
_exptl_crystal_density_diffrn 2.61
_publ_section_title 'Isomorphism and allotropy in compounds of the type A2 X O4'
loop_
_citation_id
_citation_journal_full
_citation_year
_citation_journal_volume
_citation_page_first
_citation_page_last
_citation_journal_id_ASTM
primary 'Journal of Physical Chemistry' 1942 46 747 764 JPCHAX
loop_
_publ_author_name
'Bredig, M.A.'
_cell_length_a 5.71
_cell_length_b 5.71
_cell_length_c 7.85
_cell_angle_alpha 90.
_cell_angle_beta 90.
_cell_angle_gamma 120.
_cell_volume 221.65
_cell_formula_units_Z 2
_symmetry_space_group_name_H-M 'P -3 m 1'
_symmetry_Int_Tables_number 164
loop_
_symmetry_equiv_pos_site_id
_symmetry_equiv_pos_as_xyz
1 'x-y, -y, -z'
2 '-x, -x+y, -z'
3 'y, x, -z'
4 'x-y, x, -z'
5 'y, -x+y, -z'
6 '-x, -y, -z'
7 '-x+y, y, z'
8 'x, x-y, z'
9 '-y, -x, z'
10 '-x+y, -x, z'
11 '-y, x-y, z'
12 'x, y, z'
loop_
_atom_type_symbol
_atom_type_oxidation_number
K1+ 1
S6+ 6
O2- -2
loop_
_atom_site_label
_atom_site_type_symbol
_atom_site_symmetry_multiplicity
_atom_site_Wyckoff_symbol
_atom_site_fract_x
_atom_site_fract_y
_atom_site_fract_z
_atom_site_B_iso_or_equiv
_atom_site_occupancy
_atom_site_attached_hydrogens
K1 K1+ 1 a 0 0 0 . 1. 0
K2 K1+ 1 b 0 0 0.5 . 1. 0
K3 K1+ 2 d 0.3333 0.6667 0.875 . 1. 0
S1 S6+ 2 d 0.3333 0.6667 0.27 . 1. 0
O1 O2- 2 d 0.3333 0.6667 0.46 . 1. 0
O2 O2- 6 i 0.2 -.2 0.2 . 1. 0
#End of TTdata_27956-ICSD