
data_280039-ICSD
_database_code_ICSD 280039
_audit_creation_date 2000-07-15
_chemical_name_systematic 'Zinc cadmium thiocyanate'
_chemical_formula_structural 'Zn Cd (S C N)4'
_chemical_formula_sum 'C4 Cd1 N4 S4 Zn1'
_chemical_name_structure_type CoHg(SCN)4
_exptl_crystal_density_diffrn 2.51
_cell_length_a 11.135(2)
_cell_length_b 11.135(2)
_cell_length_c 4.376(1)
_cell_angle_alpha 90.
_cell_angle_beta 90.
_cell_angle_gamma 90.
_cell_volume 542.57
_cell_formula_units_Z 2
_symmetry_space_group_name_H-M 'I -4'
_symmetry_Int_Tables_number 82
_refine_ls_R_factor_all 0.029
loop_
_symmetry_equiv_pos_site_id
_symmetry_equiv_pos_as_xyz
1 '-y, x, -z'
2 'y, -x, -z'
3 '-x, -y, z'
4 'x, y, z'
5 '-y+1/2, x+1/2, -z+1/2'
6 'y+1/2, -x+1/2, -z+1/2'
7 '-x+1/2, -y+1/2, z+1/2'
8 'x+1/2, y+1/2, z+1/2'
loop_
_atom_type_symbol
_atom_type_oxidation_number
Cd2+ 2
Zn2+ 2
S2- -2
C4+ 4
N3- -3
loop_
_atom_site_label
_atom_site_type_symbol
_atom_site_symmetry_multiplicity
_atom_site_Wyckoff_symbol
_atom_site_fract_x
_atom_site_fract_y
_atom_site_fract_z
_atom_site_B_iso_or_equiv
_atom_site_occupancy
_atom_site_attached_hydrogens
Cd1 Cd2+ 2 a 0 0 0 . 1. 0
Zn1 Zn2+ 2 c 0 0.5 0.25 . 1. 0
S1 S2- 8 g -.12450(11) 0.15280(11) -.3029(3) . 1. 0
C1 C4+ 8 g -.0783(4) 0.2734(4) -.1177(11) . 1. 0
N1 N3- 8 g -.0480(4) 0.3596(3) 0.0064(13) . 1. 0
loop_
_atom_site_aniso_label
_atom_site_aniso_type_symbol
_atom_site_aniso_U_11
_atom_site_aniso_U_22
_atom_site_aniso_U_33
_atom_site_aniso_U_12
_atom_site_aniso_U_13
_atom_site_aniso_U_23
Cd1 Cd2+ 0.0245(2) 0.0245(2) 0.0464(4) 0 0 0
Zn1 Zn2+ 0.0241(3) 0.0241(3) 0.0432(6) 0 0 0
S1 S2- 0.0336(5) 0.0269(5) 0.0416(6) 0.0017(4) -.0075(5) -.0012(4)
C1 C4+ 0.025(2) 0.025(2) 0.040(2) 0.0022(13) 0.001(2) 0.006(2)
N1 N3- 0.038(2) 0.0274(15) 0.050(2) 0.0006(14) -.003(2) 0.001(2)
