
#(C) 2017 by FIZ Karlsruhe - Leibniz Institute for Information Infrastructure.  All rights reserved.
data_280056-ICSD
_database_code_ICSD 280056
_audit_creation_date 2000-07-15
_audit_update_record 2004-04-01
_chemical_name_systematic 'Dithallium molybdate - HT'
_chemical_formula_structural 'Tl2 (Mo O4)'
_chemical_formula_sum 'Mo1 O4 Tl2'
_chemical_name_structure_type K3Na(SO4)2
_exptl_crystal_density_diffrn 6.85
_cell_measurement_temperature 350.
_publ_section_title 'Tl2 Mo O4 at 350 K'
loop_
_citation_id
_citation_journal_full
_citation_year
_citation_journal_volume
_citation_page_first
_citation_page_last
_citation_journal_id_ASTM
primary 'Acta Crystallographica, Section C: Crystal Structure Communications'
1999 55 1753 1755 ACSCEE
loop_
_publ_author_name
'Friese, K.'
'Madariaga, G.'
'Breczewski, T.'
_cell_length_a 6.266(1)
_cell_length_b 6.266(1)
_cell_length_c 8.103(2)
_cell_angle_alpha 90.
_cell_angle_beta 90.
_cell_angle_gamma 120.
_cell_volume 275.52
_cell_formula_units_Z 2
_symmetry_space_group_name_H-M 'P -3 m 1'
_symmetry_Int_Tables_number 164
_refine_ls_R_factor_all 0.046
loop_
_symmetry_equiv_pos_site_id
_symmetry_equiv_pos_as_xyz
1 'x-y, -y, -z'
2 '-x, -x+y, -z'
3 'y, x, -z'
4 'x-y, x, -z'
5 'y, -x+y, -z'
6 '-x, -y, -z'
7 '-x+y, y, z'
8 'x, x-y, z'
9 '-y, -x, z'
10 '-x+y, -x, z'
11 '-y, x-y, z'
12 'x, y, z'
loop_
_atom_type_symbol
_atom_type_oxidation_number
Tl1+ 1
Mo6+ 6
O2- -2
loop_
_atom_site_label
_atom_site_type_symbol
_atom_site_symmetry_multiplicity
_atom_site_Wyckoff_symbol
_atom_site_fract_x
_atom_site_fract_y
_atom_site_fract_z
_atom_site_B_iso_or_equiv
_atom_site_occupancy
_atom_site_attached_hydrogens
Tl1 Tl1+ 1 a 0 0 0 . 1. 0
Tl2 Tl1+ 1 b 0 0 0.5 . 1. 0
Tl3 Tl1+ 2 d 0.6667 0.3333 0.17374(10) . 1. 0
Mo1 Mo6+ 2 d 0.6667 0.3333 0.6878(2) . 1. 0
O1 O2- 2 d 0.6667 0.3333 0.478(2) . 1. 0
O2 O2- 6 i 0.1852(9) -.1852(9) 0.2350(15) . 1. 0
loop_
_atom_site_aniso_label
_atom_site_aniso_type_symbol
_atom_site_aniso_U_11
_atom_site_aniso_U_22
_atom_site_aniso_U_33
_atom_site_aniso_U_12
_atom_site_aniso_U_13
_atom_site_aniso_U_23
Tl1 Tl1+ 0.0453(6) 0.0453(6) 0.0425(8) 0.0226(3) 0 0
Tl2 Tl1+ 0.0731(8) 0.0731(8) 0.0399(8) 0.0366(4) 0 0
Tl3 Tl1+ 0.0659(7) 0.0659(7) 0.0385(7) 0.0329(3) 0 0
Mo1 Mo6+ 0.0361(9) 0.0361(9) 0.0316(9) 0.0181(4) 0 0
O1 O2- 0.124(11) 0.124(11) 0.034(9) 0.062(5) 0 0
O2 O2- 0.137(10) 0.137(10) 0.080(8) 0.108(10) -.014(3) 0.014(3)
#End of TTdata_280056-ICSD