
#(C) 2017 by FIZ Karlsruhe - Leibniz Institute for Information Infrastructure.  All rights reserved.
data_280167-ICSD
_database_code_ICSD 280167
_audit_creation_date 2000-07-15
_chemical_name_systematic 'Barium dinickel bis(phosphate(V))'
_chemical_formula_structural 'Ba Ni2 (P O4)2'
_chemical_formula_sum 'Ba1 Ni2 O8 P2'
_exptl_crystal_density_diffrn 4.74
_cell_measurement_temperature 173.
_publ_section_title 'Ba Ni2 (P O4)2'
loop_
_citation_id
_citation_journal_full
_citation_year
_citation_journal_volume
_citation_page_first
_citation_page_last
_citation_journal_id_ASTM
primary 'Acta Crystallographica, Section C: Crystal Structure Communications'
1999 55 701 702 ACSCEE
loop_
_publ_author_name
'El Bali, B.'
'Bolte, M.'
'Boukhari, A.'
'Aride, J.'
'Taibe, M.'
_cell_length_a 4.8112(7)
_cell_length_b 4.8112(7)
_cell_length_c 23.3020(50)
_cell_angle_alpha 90.
_cell_angle_beta 90.
_cell_angle_gamma 120.
_cell_volume 467.12
_cell_formula_units_Z 3
_symmetry_space_group_name_H-M 'R -3 H'
_symmetry_Int_Tables_number 148
_refine_ls_R_factor_all 0.039
loop_
_symmetry_equiv_pos_site_id
_symmetry_equiv_pos_as_xyz
1 'x-y, x, -z'
2 'y, -x+y, -z'
3 '-x, -y, -z'
4 '-x+y, -x, z'
5 '-y, x-y, z'
6 'x, y, z'
7 'x-y+2/3, x+1/3, -z+1/3'
8 'y+2/3, -x+y+1/3, -z+1/3'
9 '-x+2/3, -y+1/3, -z+1/3'
10 '-x+y+2/3, -x+1/3, z+1/3'
11 '-y+2/3, x-y+1/3, z+1/3'
12 'x+2/3, y+1/3, z+1/3'
13 'x-y+1/3, x+2/3, -z+2/3'
14 'y+1/3, -x+y+2/3, -z+2/3'
15 '-x+1/3, -y+2/3, -z+2/3'
16 '-x+y+1/3, -x+2/3, z+2/3'
17 '-y+1/3, x-y+2/3, z+2/3'
18 'x+1/3, y+2/3, z+2/3'
loop_
_atom_type_symbol
_atom_type_oxidation_number
Ba2+ 2
Ni2+ 2
P5+ 5
O2- -2
loop_
_atom_site_label
_atom_site_type_symbol
_atom_site_symmetry_multiplicity
_atom_site_Wyckoff_symbol
_atom_site_fract_x
_atom_site_fract_y
_atom_site_fract_z
_atom_site_B_iso_or_equiv
_atom_site_occupancy
_atom_site_attached_hydrogens
Ba1 Ba2+ 3 b 0 0 0.5 . 1. 0
Ni1 Ni2+ 6 c 0 0 0.33117(7) . 1. 0
P1 P5+ 6 c 0 0 0.07358(14) . 1. 0
O1 O2- 6 c 0 0 0.1380(3) . 1. 0
O2 O2- 18 f 0.0095(10) 0.3135(10) 0.05179(17) . 1. 0
loop_
_atom_site_aniso_label
_atom_site_aniso_type_symbol
_atom_site_aniso_U_11
_atom_site_aniso_U_22
_atom_site_aniso_U_33
_atom_site_aniso_U_12
_atom_site_aniso_U_13
_atom_site_aniso_U_23
Ba1 Ba2+ 0.0114(7) 0.0114(7) 0.0131(8) 0.0057(3) 0 0
Ni1 Ni2+ 0.0109(7) 0.0109(7) 0.0115(10) 0.0055(4) 0 0
P1 P5+ 0.0118(11) 0.0118(11) 0.0075(14) 0.0059(5) 0 0
O1 O2- 0.018(3) 0.018(3) 0.005(4) 0.0092(13) 0 0
O2 O2- 0.011(2) 0.012(2) 0.010(2) 0.0052(18) -.0015(17) 0.0005(17)
#End of TTdata_280167-ICSD