
data_280253-ICSD
_database_code_ICSD 280253
_audit_creation_date 2002-04-01
_chemical_name_systematic 'Tripotassium tetra(peroxo)chromate(V)'
_chemical_formula_structural 'K3 (Cr (O2)4)'
_chemical_formula_sum 'Cr1 K3 O8'
_chemical_name_structure_type K3CrO8
_exptl_crystal_density_diffrn 2.91
_cell_measurement_temperature 173.
_cell_length_a 6.6940(3)
_cell_length_b 6.6940(3)
_cell_length_c 7.5736(5)
_cell_angle_alpha 90.
_cell_angle_beta 90.
_cell_angle_gamma 90.
_cell_volume 339.37
_cell_formula_units_Z 2
_symmetry_space_group_name_H-M 'I -4 2 m'
_symmetry_Int_Tables_number 121
_refine_ls_R_factor_all 0.0149
loop_
_symmetry_equiv_pos_site_id
_symmetry_equiv_pos_as_xyz
1 '-y, -x, z'
2 'y, x, z'
3 'y, -x, -z'
4 '-y, x, -z'
5 'x, -y, -z'
6 '-x, y, -z'
7 '-x, -y, z'
8 'x, y, z'
9 '-y+1/2, -x+1/2, z+1/2'
10 'y+1/2, x+1/2, z+1/2'
11 'y+1/2, -x+1/2, -z+1/2'
12 '-y+1/2, x+1/2, -z+1/2'
13 'x+1/2, -y+1/2, -z+1/2'
14 '-x+1/2, y+1/2, -z+1/2'
15 '-x+1/2, -y+1/2, z+1/2'
16 'x+1/2, y+1/2, z+1/2'
loop_
_atom_type_symbol
_atom_type_oxidation_number
Cr5+ 5
K1+ 1
O1- -1
loop_
_atom_site_label
_atom_site_type_symbol
_atom_site_symmetry_multiplicity
_atom_site_Wyckoff_symbol
_atom_site_fract_x
_atom_site_fract_y
_atom_site_fract_z
_atom_site_B_iso_or_equiv
_atom_site_occupancy
_atom_site_attached_hydrogens
Cr1 Cr5+ 2 a 0 0 0 . 1. 0
K1 K1+ 2 b 0 0 0.5 . 1. 0
K2 K1+ 4 d 0 0.5 0.25 . 1. 0
O1 O1- 8 i 0.13483(14) 0.13483(14) 0.1825(2) . 1. 0
O2 O1- 8 i 0.20661(14) 0.20661(14) 0.0131(2) . 1. 0
loop_
_atom_site_aniso_label
_atom_site_aniso_type_symbol
_atom_site_aniso_U_11
_atom_site_aniso_U_22
_atom_site_aniso_U_33
_atom_site_aniso_U_12
_atom_site_aniso_U_13
_atom_site_aniso_U_23
Cr1 Cr5+ 0.0060(2) 0.0060(2) 0.0060(3) 0 0 0
K1 K1+ 0.0106(3) 0.0106(3) 0.0113(4) 0 0 0
K2 K1+ 0.0105(3) 0.0105(3) 0.0266(4) 0 0 0
O1 O1- 0.0128(4) 0.0128(4) 0.0084(6) -.0025(5) -.0005(4) -.0005(4)
O2 O1- 0.0128(4) 0.0128(4) 0.0106(6) -.0051(5) 0.0011(4) 0.0011(4)
