
#(C) 2017 by FIZ Karlsruhe - Leibniz Institute for Information Infrastructure.  All rights reserved.
data_280310-ICSD
_database_code_ICSD 280310
_audit_creation_date 2002-04-01
_chemical_name_systematic 'Dipotassium phyllo-dialumodiantimonate(III)'
_chemical_formula_structural 'K2 (Al2 Sb2 O7)'
_chemical_formula_sum 'Al2 K2 O7 Sb2'
_chemical_name_structure_type Rb2Al3Sb2O7
_exptl_crystal_density_diffrn 3.66
_publ_section_title 'Potassium oxoaluminate antimonate(III), K2 (Al2 Sb2 O7)'
loop_
_citation_id
_citation_journal_full
_citation_year
_citation_journal_volume
_citation_page_first
_citation_page_last
_citation_journal_id_ASTM
primary 'Acta Crystallographica, Section C: Crystal Structure Communications'
2000 56 5 6 ACSCEE
loop_
_publ_author_name
'Hirschle, C.'
'Roehr, C.'
_cell_length_a 5.6325(8)
_cell_length_b 5.6325(8)
_cell_length_c 8.045(2)
_cell_angle_alpha 90.
_cell_angle_beta 90.
_cell_angle_gamma 120.
_cell_volume 221.03
_cell_formula_units_Z 1
_symmetry_space_group_name_H-M 'P -3 m 1'
_symmetry_Int_Tables_number 164
_refine_ls_R_factor_all 0.02
loop_
_symmetry_equiv_pos_site_id
_symmetry_equiv_pos_as_xyz
1 'x-y, -y, -z'
2 '-x, -x+y, -z'
3 'y, x, -z'
4 'x-y, x, -z'
5 'y, -x+y, -z'
6 '-x, -y, -z'
7 '-x+y, y, z'
8 'x, x-y, z'
9 '-y, -x, z'
10 '-x+y, -x, z'
11 '-y, x-y, z'
12 'x, y, z'
loop_
_atom_type_symbol
_atom_type_oxidation_number
K1+ 1
Sb3+ 3
Al3+ 3
O2- -2
loop_
_atom_site_label
_atom_site_type_symbol
_atom_site_symmetry_multiplicity
_atom_site_Wyckoff_symbol
_atom_site_fract_x
_atom_site_fract_y
_atom_site_fract_z
_atom_site_B_iso_or_equiv
_atom_site_occupancy
_atom_site_attached_hydrogens
K1 K1+ 2 d 0.3333 0.6667 0.58969(14) . 1. 0
Sb1 Sb3+ 2 d 0.3333 0.6667 0.15516(3) . 1. 0
Al1 Al3+ 2 c 0 0 0.21158(14) . 1. 0
O1 O2- 6 i 0.16874(17) 0.83126(17) 0.2895(2) . 1. 0
O2 O2- 1 a 0 0 0 . 1. 0
loop_
_atom_site_aniso_label
_atom_site_aniso_type_symbol
_atom_site_aniso_U_11
_atom_site_aniso_U_22
_atom_site_aniso_U_33
_atom_site_aniso_U_12
_atom_site_aniso_U_13
_atom_site_aniso_U_23
K1 K1+ 0.0176(2) 0.0176(2) 0.0172(4) 0.00879(12) 0 0
Sb1 Sb3+ 0.00929(13) 0.00929(13) 0.00879(15) 0.00465(6) 0 0
Al1 Al3+ 0.0068(3) 0.0068(3) 0.0107(5) 0.00340(14) 0 0
O1 O2- 0.0194(6) 0.0194(6) 0.0153(6) 0.0159(7) -.0001(3) 0.0001(3)
O2 O2- 0.0257(14) 0.0257(14) 0.0104(17) 0.0129(7) 0 0
#End of TTdata_280310-ICSD