
#(C) 2017 by FIZ Karlsruhe - Leibniz Institute for Information Infrastructure.  All rights reserved.
data_280533-ICSD
_database_code_ICSD 280533
_audit_creation_date 2002-04-01
_chemical_name_systematic 'Dicopper dipotassium ditelluride tritelluride'
_chemical_formula_structural 'Cu2 K2 (Te2) (Te3)'
_chemical_formula_sum 'Cu2 K2 Te5'
_exptl_crystal_density_diffrn 5.29
_publ_section_title

;
Rb4 Hg5 (Te2)2 (Te3)2 Te3, (Zn(en)3)4 In16 (Te2)4 (Te3) Te22, and K2 Cu2
(Te2)( Te3): Novel metal polytellurides with unusual metal-tellurium
coordination
;
loop_
_citation_id
_citation_journal_full
_citation_year
_citation_journal_volume
_citation_page_first
_citation_page_last
_citation_journal_id_ASTM
primary 'Inorganic Chemistry' 2001 40 1341 1346 INOCAJ
loop_
_publ_author_name
'Chen, X.'
'Huang, X.'
'Li, J.'
_cell_length_a 11.386(2)
_cell_length_b 7.756(2)
_cell_length_c 11.985(2)
_cell_angle_alpha 90.
_cell_angle_beta 90.
_cell_angle_gamma 90.
_cell_volume 1058.39
_cell_formula_units_Z 4
_symmetry_space_group_name_H-M 'C m c m'
_symmetry_Int_Tables_number 63
_refine_ls_R_factor_all 0.0546
loop_
_symmetry_equiv_pos_site_id
_symmetry_equiv_pos_as_xyz
1 '-x, y, -z+1/2'
2 '-x, -y, z+1/2'
3 '-x, y, z'
4 '-x, -y, -z'
5 'x, -y, z+1/2'
6 'x, y, -z+1/2'
7 'x, -y, -z'
8 'x, y, z'
9 '-x+1/2, y+1/2, -z+1/2'
10 '-x+1/2, -y+1/2, z+1/2'
11 '-x+1/2, y+1/2, z'
12 '-x+1/2, -y+1/2, -z'
13 'x+1/2, -y+1/2, z+1/2'
14 'x+1/2, y+1/2, -z+1/2'
15 'x+1/2, -y+1/2, -z'
16 'x+1/2, y+1/2, z'
loop_
_atom_type_symbol
_atom_type_oxidation_number
Cu0+ 0
Te0+ 0
K0+ 0
loop_
_atom_site_label
_atom_site_type_symbol
_atom_site_symmetry_multiplicity
_atom_site_Wyckoff_symbol
_atom_site_fract_x
_atom_site_fract_y
_atom_site_fract_z
_atom_site_B_iso_or_equiv
_atom_site_occupancy
_atom_site_attached_hydrogens
Cu1 Cu0+ 8 g 0.38695(12) 0.07122(16) 0.75 . 1. 0
Te1 Te0+ 8 f 0.5 0.15142(8) 0.56345(5) . 1. 0
Te2 Te0+ 8 g 0.19123(6) 0.25728(8) 0.75 . 1. 0
Te3 Te0+ 4 c 0 0.03424(11) 0.75 . 1. 0
K1 K0+ 8 e 0.2033(2) 0 0.5 . 1. 0
loop_
_atom_site_aniso_label
_atom_site_aniso_type_symbol
_atom_site_aniso_U_11
_atom_site_aniso_U_22
_atom_site_aniso_U_33
_atom_site_aniso_U_12
_atom_site_aniso_U_13
_atom_site_aniso_U_23
Cu1 Cu0+ 0.0193(6) 0.0217(6) 0.0248(6) -.0006(5) 0 0
Te1 Te0+ 0.0141(3) 0.0173(3) 0.0155(3) 0 0 0.0006(2)
Te2 Te0+ 0.0129(3) 0.0183(3) 0.0302(4) 0.0027(2) 0 0
Te3 Te0+ 0.0203(5) 0.0172(4) 0.0233(5) 0 0 0
K1 K0+ 0.0249(11) 0.0275(11) 0.0240(11) 0 0 -.0021(9)
#End of TTdata_280533-ICSD