
#(C) 2017 by FIZ Karlsruhe - Leibniz Institute for Information Infrastructure.  All rights reserved.
data_28471-ICSD
_database_code_ICSD 28471
_audit_creation_date 1980-01-01
_audit_update_record 2005-10-01
_chemical_name_systematic 'Molybdenum divanadium oxide'
_chemical_formula_structural 'Mo V2 O8'
_chemical_formula_sum 'Mo1 O8 V2'
_exptl_crystal_density_diffrn 3.73
_publ_section_title 'Structure cristalline de la phase Mo V2 O8'
loop_
_citation_id
_citation_journal_full
_citation_year
_citation_journal_volume
_citation_page_first
_citation_page_last
_citation_journal_id_ASTM
primary

;
Comptes Rendus Hebdomadaires des Seances de l'Academie des Sciences, Serie C,
Sciences Chimiques (1966-)
; 1966 263 1131 1133 CHDCAQ
loop_
_publ_author_name
'Pailleret, P.'
'Borensztajn, J.'
'Freundlich, W.'
'Rimsky, A.'
_cell_length_a 19.4
_cell_length_b 3.62
_cell_length_c 4.13
_cell_angle_alpha 90.
_cell_angle_beta 90.
_cell_angle_gamma 90.
_cell_volume 290.04
_cell_formula_units_Z 2
_symmetry_space_group_name_H-M 'C 1 2/m 1'
_symmetry_Int_Tables_number 12
_refine_ls_R_factor_all 0.026
loop_
_symmetry_equiv_pos_site_id
_symmetry_equiv_pos_as_xyz
1 '-x, y, -z'
2 '-x, -y, -z'
3 'x, -y, z'
4 'x, y, z'
5 '-x+1/2, y+1/2, -z'
6 '-x+1/2, -y+1/2, -z'
7 'x+1/2, -y+1/2, z'
8 'x+1/2, y+1/2, z'
loop_
_atom_type_symbol
_atom_type_oxidation_number
Mo6+ 6
V5+ 5
O2- -2
loop_
_atom_site_label
_atom_site_type_symbol
_atom_site_symmetry_multiplicity
_atom_site_Wyckoff_symbol
_atom_site_fract_x
_atom_site_fract_y
_atom_site_fract_z
_atom_site_B_iso_or_equiv
_atom_site_occupancy
_atom_site_attached_hydrogens
Mo1 Mo6+ 2 a 0 0 0 . 1. 0
V1 V5+ 4 i 0.187 0 0.152 . 1. 0
O1 O2- 2 b 0.5 0 0 . 1. 0
O2 O2- 2 c 0 0 0.5 . 1. 0
O3 O2- 4 i 0.192 0 0.556 . 1. 0
O4 O2- 4 i 0.085 0 0.013 . 1. 0
O5 O2- 4 i 0.311 0 0.022 . 1. 0
#End of TTdata_28471-ICSD