
data_2856-ICSD
_database_code_ICSD 2856
_audit_creation_date 1980-01-01
_audit_update_record 2013-02-01
_chemical_name_systematic 'Tricopper(I) tetraselenophosphate(V)'
_chemical_formula_structural 'Cu3 (P Se4)'
_chemical_formula_sum 'Cu3 P1 Se4'
_chemical_name_structure_type Enargite-Cu3AsS4
_exptl_crystal_density_diffrn 5.46
_cell_length_a 7.697(2)
_cell_length_b 6.661(2)
_cell_length_c 6.381(2)
_cell_angle_alpha 90.
_cell_angle_beta 90.
_cell_angle_gamma 90.
_cell_volume 327.15
_cell_formula_units_Z 2
_symmetry_space_group_name_H-M 'P m n 21'
_symmetry_Int_Tables_number 31
_refine_ls_R_factor_all 0.1
loop_
_symmetry_equiv_pos_site_id
_symmetry_equiv_pos_as_xyz
1 'x+1/2, -y, z+1/2'
2 '-x+1/2, -y, z+1/2'
3 '-x, y, z'
4 'x, y, z'
loop_
_atom_type_symbol
_atom_type_oxidation_number
Cu1+ 1
P5+ 5
Se2- -2
loop_
_atom_site_label
_atom_site_type_symbol
_atom_site_symmetry_multiplicity
_atom_site_Wyckoff_symbol
_atom_site_fract_x
_atom_site_fract_y
_atom_site_fract_z
_atom_site_B_iso_or_equiv
_atom_site_occupancy
_atom_site_attached_hydrogens
Cu1 Cu1+ 2 a 0 0.1670(9) 0.5000(1) 1.38 1. 0
Cu2 Cu1+ 4 b 0.2490(4) 0.331(1) 0.0000(1) 1.32 1. 0
P1 P5+ 2 a 0 0.834(2) 0 2.58 1. 0
Se1 Se2- 2 a 0 0.832(1) 0.3740(7) 1.56 1. 0
Se2 Se2- 2 a 0 0.167(1) 0.8740(7) 1.46 1. 0
Se3 Se2- 4 b 0.2490(4) 0.332(1) 0.3760(6) 1.46 1. 0
