
data_28603-ICSD
_database_code_ICSD 28603
_audit_creation_date 1980-01-01
_audit_update_record 2009-02-01
_chemical_name_systematic 'Strontium germanate - subcell'
_chemical_formula_structural 'Sr (Ge O3)'
_chemical_formula_sum 'Ge1 O3 Sr1'
_exptl_crystal_density_diffrn 4.23
_cell_length_a 7.29
_cell_length_b 7.29
_cell_length_c 5.33
_cell_angle_alpha 90.
_cell_angle_beta 90.
_cell_angle_gamma 120.
_cell_volume 245.31
_cell_formula_units_Z 3
_symmetry_space_group_name_H-M 'P -6 2 m'
_symmetry_Int_Tables_number 189
_refine_ls_R_factor_all 0.13
loop_
_symmetry_equiv_pos_site_id
_symmetry_equiv_pos_as_xyz
1 '-x, -x+y, -z'
2 'x-y, -y, -z'
3 'y, x, -z'
4 '-x, -x+y, z'
5 'x-y, -y, z'
6 'y, x, z'
7 '-x+y, -x, -z'
8 '-y, x-y, -z'
9 'x, y, -z'
10 '-x+y, -x, z'
11 '-y, x-y, z'
12 'x, y, z'
loop_
_atom_type_symbol
_atom_type_oxidation_number
Ge4+ 4
O2- -2
Sr2+ 2
loop_
_atom_site_label
_atom_site_type_symbol
_atom_site_symmetry_multiplicity
_atom_site_Wyckoff_symbol
_atom_site_fract_x
_atom_site_fract_y
_atom_site_fract_z
_atom_site_B_iso_or_equiv
_atom_site_occupancy
_atom_site_attached_hydrogens
Ge1 Ge4+ 3 f -.26 0 0 1.4 1. 0
O1 O2- 6 i -.375 0 0.3 1.4 1. 0
O2 O2- 3 f 0.235 0 0 1.4 1. 0
Sr1 Sr2+ 3 g 0.33 0 0.5 1.4 1. 0
