
data_29035-ICSD
_database_code_ICSD 29035
_audit_creation_date 1980-01-01
_audit_update_record 2015-02-01
_chemical_name_systematic 'Titanium(III) chloride - alpha'
_chemical_formula_structural 'Ti Cl3'
_chemical_formula_sum 'Cl3 Ti1'
_chemical_name_structure_type BiI3(P3-1m)
_exptl_crystal_density_diffrn 2.68
_publ_section_title

;
Il calcolo dell'intensita di diffrazione dei raggi X da parte di strutture
denotanti disordine monodimensionale. III- Studio strutturale di due diverse
modificazioni cristalline del Ti Cl3 che presentano disordine monodimensionale
;
loop_
_citation_id
_citation_journal_full
_citation_year
_citation_journal_volume
_citation_page_first
_citation_page_last
_citation_journal_id_ASTM
primary 'Nuovo Cimento' 1962 23 502 515 NUCIAD
loop_
_publ_author_name
'Allegra, G.'
_cell_length_a 6.14(3)
_cell_length_b 6.14(3)
_cell_length_c 5.85
_cell_angle_alpha 90.
_cell_angle_beta 90.
_cell_angle_gamma 120.
_cell_volume 191.
_cell_formula_units_Z 2
_symmetry_space_group_name_H-M 'P -3 1 m'
_symmetry_Int_Tables_number 162
loop_
_symmetry_equiv_pos_site_id
_symmetry_equiv_pos_as_xyz
1 '-x+y, y, -z'
2 'x, x-y, -z'
3 '-y, -x, -z'
4 'x-y, x, -z'
5 'y, -x+y, -z'
6 '-x, -y, -z'
7 'x-y, -y, z'
8 '-x, -x+y, z'
9 'y, x, z'
10 '-x+y, -x, z'
11 '-y, x-y, z'
12 'x, y, z'
loop_
_atom_type_symbol
_atom_type_oxidation_number
Ti3+ 3
Cl1- -1
loop_
_atom_site_label
_atom_site_type_symbol
_atom_site_symmetry_multiplicity
_atom_site_Wyckoff_symbol
_atom_site_fract_x
_atom_site_fract_y
_atom_site_fract_z
_atom_site_B_iso_or_equiv
_atom_site_occupancy
_atom_site_attached_hydrogens
Ti1 Ti3+ 2 c 0.3333 0.6667 0 . 1. 0
Cl1 Cl1- 6 k 0.3333 0 -.25 . 1. 0
