
#(C) 2017 by FIZ Karlsruhe - Leibniz Institute for Information Infrastructure.  All rights reserved.
data_290594-ICSD
_database_code_ICSD 290594
_audit_creation_date 2014-02-01
_chemical_name_systematic 'Barium diiron triselenide'
_chemical_formula_structural 'Ba Fe2 Se3'
_chemical_formula_sum 'Ba1 Fe2 Se3'
_chemical_name_structure_type CsCu2Cl3
_exptl_crystal_density_diffrn 6.37
_cell_measurement_pressure 7000000.
_publ_section_title

;
Crystal structure of Ba Fe2 Se3 as a function of temperature and pressure:
phase transition phenomena and high-order expansion of Landau potential
;
loop_
_citation_id
_citation_journal_full
_citation_year
_citation_journal_volume
_citation_page_first
_citation_page_last
_citation_journal_id_ASTM
primary 'Journal of Physics: Condensed Matter' 2013 25 315403-1 315403-11 JCOMEL
loop_
_publ_author_name
'Svitlyk, V.'
'Chernyshov, D.'
'Pomjakushina, E.'
'Krzton-Maziopa, A.'
'Conder, K.'
'Pomjakushin, V.'
'Poettgen, R.'
'Dmitriev, V.'
_cell_length_a 8.780(1)
_cell_length_b 10.885(3)
_cell_length_c 5.2981(6)
_cell_angle_alpha 90.
_cell_angle_beta 90.
_cell_angle_gamma 90.
_cell_volume 506.34
_cell_formula_units_Z 4
_symmetry_space_group_name_H-M 'C m c m'
_symmetry_Int_Tables_number 63
_refine_ls_R_factor_all 0.0366
loop_
_symmetry_equiv_pos_site_id
_symmetry_equiv_pos_as_xyz
1 '-x, y, -z+1/2'
2 '-x, -y, z+1/2'
3 '-x, y, z'
4 '-x, -y, -z'
5 'x, -y, z+1/2'
6 'x, y, -z+1/2'
7 'x, -y, -z'
8 'x, y, z'
9 '-x+1/2, y+1/2, -z+1/2'
10 '-x+1/2, -y+1/2, z+1/2'
11 '-x+1/2, y+1/2, z'
12 '-x+1/2, -y+1/2, -z'
13 'x+1/2, -y+1/2, z+1/2'
14 'x+1/2, y+1/2, -z+1/2'
15 'x+1/2, -y+1/2, -z'
16 'x+1/2, y+1/2, z'
loop_
_atom_type_symbol
_atom_type_oxidation_number
Ba2+ 2
Se2- -2
Fe2+ 2
loop_
_atom_site_label
_atom_site_type_symbol
_atom_site_symmetry_multiplicity
_atom_site_Wyckoff_symbol
_atom_site_fract_x
_atom_site_fract_y
_atom_site_fract_z
_atom_site_B_iso_or_equiv
_atom_site_occupancy
_atom_site_attached_hydrogens
Ba1 Ba2+ 4 c 0.5 0.1742(8) 0.25 0.51(13) 1. 0
Se1 Se2- 4 c 0.5 0.637(1) 0.25 0.56(14) 1. 0
Se2 Se2- 8 g 0.2029(5) 0.3785(9) 0.25 0.54(14) 1. 0
Fe1 Fe2+ 8 e 0.349(1) 0.5 0 2.73(19) 1. 0
#End of TTdata_290594-ICSD