
#(C) 2017 by FIZ Karlsruhe - Leibniz Institute for Information Infrastructure.  All rights reserved.
data_300123-ICSD
_database_code_ICSD 300123
_audit_creation_date 1990-12-27
_audit_update_record 2003-04-01
_chemical_name_systematic 'Tricesium diphosphidoborate'
_chemical_formula_structural 'Cs3 (B P2)'
_chemical_formula_sum 'B1 Cs3 P2'
_chemical_name_structure_type K3BP2
_exptl_crystal_density_diffrn 3.55
_publ_section_title 'Crystal structure of cesium diphosphidoborate'
loop_
_citation_id
_citation_journal_full
_citation_year
_citation_journal_volume
_citation_page_first
_citation_page_last
_citation_journal_id_ASTM
primary 'Zeitschrift fuer Kristallographie (1979-2010)' 1990 193 297 298 ZEKRDZ
loop_
_publ_author_name
'Somer, M.'
'Popp, T.'
'Peters, K.'
'von Schnering, H.G.'
_cell_length_a 9.8344(24)
_cell_length_b 9.6736(20)
_cell_length_c 9.8592(21)
_cell_angle_alpha 90.
_cell_angle_beta 109.770(18)
_cell_angle_gamma 90.
_cell_volume 882.66
_cell_formula_units_Z 4
_symmetry_space_group_name_H-M 'C 1 2/c 1'
_symmetry_Int_Tables_number 15
_refine_ls_R_factor_all 0.0316
loop_
_symmetry_equiv_pos_site_id
_symmetry_equiv_pos_as_xyz
1 'x, -y, z+1/2'
2 '-x, -y, -z'
3 '-x, y, -z+1/2'
4 'x, y, z'
5 'x+1/2, -y+1/2, z+1/2'
6 '-x+1/2, -y+1/2, -z'
7 '-x+1/2, y+1/2, -z+1/2'
8 'x+1/2, y+1/2, z'
loop_
_atom_type_symbol
_atom_type_oxidation_number
Cs1+ 1
P3- -3
B3+ 3
loop_
_atom_site_label
_atom_site_type_symbol
_atom_site_symmetry_multiplicity
_atom_site_Wyckoff_symbol
_atom_site_fract_x
_atom_site_fract_y
_atom_site_fract_z
_atom_site_B_iso_or_equiv
_atom_site_occupancy
_atom_site_attached_hydrogens
Cs1 Cs1+ 8 f 0.20527(5) -.05009(4) 0.48071(5) . 1. 0
Cs2 Cs1+ 4 e 0 0.34005(7) 0.25 . 1. 0
P1 P3- 8 f 0.38219(20) 0.21560(19) 0.35176(20) . 1. 0
B1 B3+ 4 e 0 0.71279(93) 0.25 . 1. 0
loop_
_atom_site_aniso_label
_atom_site_aniso_type_symbol
_atom_site_aniso_U_11
_atom_site_aniso_U_22
_atom_site_aniso_U_33
_atom_site_aniso_U_12
_atom_site_aniso_U_13
_atom_site_aniso_U_23
Cs1 Cs1+ 0.04483(28) 0.03943(25) 0.04148(26) -0.00177(17) 0.01057(20)
-0.00677(19)
Cs2 Cs1+ 0.03897(36) 0.04796(36) 0.04124(35) 0 0.00768(28) 0
P1 P3- 0.03882(95) 0.04859(95) 0.03847(89) 0.00193(76) 0.01779(79) -0.00175(83)
B1 B3+ 0.0317(49) 0.0219(39) 0.0309(46) 0 0.0021(40) 0
#End of TTdata_300123-ICSD