
#(C) 2017 by FIZ Karlsruhe - Leibniz Institute for Information Infrastructure.  All rights reserved.
data_300122-ICSD
_database_code_ICSD 300122
_audit_creation_date 1990-12-27
_audit_update_record 2003-04-01
_chemical_name_systematic 'Tricesium diarsenidoborate'
_chemical_formula_structural 'Cs3 (B As2)'
_chemical_formula_sum 'As2 B1 Cs3'
_chemical_name_structure_type K3BP2
_exptl_crystal_density_diffrn 3.93
_publ_section_title 'Crystal structure of cesium diarsenidoborate'
loop_
_citation_id
_citation_journal_full
_citation_year
_citation_journal_volume
_citation_page_first
_citation_page_last
_citation_journal_id_ASTM
primary 'Zeitschrift fuer Kristallographie (1979-2010)' 1990 193 295 296 ZEKRDZ
loop_
_publ_author_name
'Somer, M.'
'Popp, T.'
'Peters, K.'
'von Schnering, H.G.'
_cell_length_a 10.059(10)
_cell_length_b 9.866(10)
_cell_length_c 10.1707(84)
_cell_angle_alpha 90.
_cell_angle_beta 110.62(7)
_cell_angle_gamma 90.
_cell_volume 944.7
_cell_formula_units_Z 4
_symmetry_space_group_name_H-M 'C 1 2/c 1'
_symmetry_Int_Tables_number 15
_refine_ls_R_factor_all 0.0496
loop_
_symmetry_equiv_pos_site_id
_symmetry_equiv_pos_as_xyz
1 'x, -y, z+1/2'
2 '-x, -y, -z'
3 '-x, y, -z+1/2'
4 'x, y, z'
5 'x+1/2, -y+1/2, z+1/2'
6 '-x+1/2, -y+1/2, -z'
7 '-x+1/2, y+1/2, -z+1/2'
8 'x+1/2, y+1/2, z'
loop_
_atom_type_symbol
_atom_type_oxidation_number
Cs1+ 1
As3- -3
B3+ 3
loop_
_atom_site_label
_atom_site_type_symbol
_atom_site_symmetry_multiplicity
_atom_site_Wyckoff_symbol
_atom_site_fract_x
_atom_site_fract_y
_atom_site_fract_z
_atom_site_B_iso_or_equiv
_atom_site_occupancy
_atom_site_attached_hydrogens
Cs1 Cs1+ 8 f 0.20514(11) -.05213(9) 0.48086(11) . 1. 0
Cs2 Cs1+ 4 e 0.5 -.15532(14) 0.25 . 1. 0
As1 As3- 8 f 0.37877(16) 0.21657(16) 0.35452(19) . 1. 0
B1 B3+ 4 e 0.5 0.2131(18) 0.25 . 1. 0
loop_
_atom_site_aniso_label
_atom_site_aniso_type_symbol
_atom_site_aniso_U_11
_atom_site_aniso_U_22
_atom_site_aniso_U_33
_atom_site_aniso_U_12
_atom_site_aniso_U_13
_atom_site_aniso_U_23
Cs1 Cs1+ 0.04209(53) 0.03327(48) 0.06392(67) -0.00205(43) 0.01179(47)
-0.00740(39)
Cs2 Cs1+ 0.03473(69) 0.04293(88) 0.0642(12) -0.0157(37) 0.00847(80) -0.0018(47)
As1 As3- 0.03448(75) 0.04208(82) 0.0615(10) 0.00243(72) 0.01934(73) -0.00152(63)
B1 B3+ 0.0315(98) 0.0148(78) 0.045(12) 0 -0.0052(91) 0
#End of TTdata_300122-ICSD