
data_30274-ICSD
_database_code_ICSD 30274
_audit_creation_date 1986-09-29
_audit_update_record 2005-10-01
_chemical_name_systematic 'Aluminium fluoride'
_chemical_formula_structural 'Al F3'
_chemical_formula_sum 'Al1 F3'
_exptl_crystal_density_diffrn 3.21
_cell_length_a 5.029(5)
_cell_length_b 5.029(5)
_cell_length_c 5.029(5)
_cell_angle_alpha 58.52
_cell_angle_beta 58.52
_cell_angle_gamma 58.52
_cell_volume 86.89
_cell_formula_units_Z 2
_symmetry_space_group_name_H-M 'R 3 2 R'
_symmetry_Int_Tables_number 155
loop_
_symmetry_equiv_pos_site_id
_symmetry_equiv_pos_as_xyz
1 '-z, -y, -x'
2 'z, x, y'
3 '-x, -z, -y'
4 'y, z, x'
5 '-y, -x, -z'
6 'x, y, z'
loop_
_atom_type_symbol
_atom_type_oxidation_number
Al3+ 3
F1- -1
loop_
_atom_site_label
_atom_site_type_symbol
_atom_site_symmetry_multiplicity
_atom_site_Wyckoff_symbol
_atom_site_fract_x
_atom_site_fract_y
_atom_site_fract_z
_atom_site_B_iso_or_equiv
_atom_site_occupancy
_atom_site_attached_hydrogens
Al1 Al3+ 2 c 0.237(2) 0.237(2) 0.237(2) . 1. 0
F1 F1- 3 d 0.430(3) 0.570(3) 0 . 1. 0
F2 F1- 3 e 0.070(3) 0.930(3) 0.5 . 1. 0
