
#(C) 2017 by FIZ Karlsruhe - Leibniz Institute for Information Infrastructure.  All rights reserved.
data_30337-ICSD
_database_code_ICSD 30337
_audit_creation_date 1980-01-01
_audit_update_record 2011-02-01
_chemical_name_systematic 'Strontium azide'
_chemical_formula_structural 'Sr (N3)2'
_chemical_formula_sum 'N6 Sr1'
_chemical_name_structure_type Sr(N3)2
_exptl_crystal_density_diffrn 2.77
_publ_section_title 'The crystal structure of strontium azide'
loop_
_citation_id
_citation_journal_full
_citation_year
_citation_journal_volume
_citation_page_first
_citation_page_last
_citation_journal_id_ASTM
primary 'Journal of the Chemical Society' 1947 1947 881 884 JCSOA9
loop_
_publ_author_name
'Llewellyn, F.J.'
'Whitmore, F.E.'
_cell_length_a 11.82
_cell_length_b 11.47
_cell_length_c 6.08
_cell_angle_alpha 90.
_cell_angle_beta 90.
_cell_angle_gamma 90.
_cell_volume 824.3
_cell_formula_units_Z 8
_symmetry_space_group_name_H-M 'F d d d S'
_symmetry_Int_Tables_number 70
_refine_ls_R_factor_all 0.27
loop_
_symmetry_equiv_pos_site_id
_symmetry_equiv_pos_as_xyz
1 'x+1/4, y+1/4, -z+1/4'
2 '-x+1/4, y+1/4, z+1/4'
3 '-x, -y, z'
4 'x, -y, -z'
5 'x+1/4, -y+1/4, z+1/4'
6 '-x+1/4, -y+1/4, -z+1/4'
7 '-x, y, -z'
8 'x, y, z'
9 'x+1/4, y+3/4, -z+3/4'
10 '-x+1/4, y+3/4, z+3/4'
11 '-x, -y+1/2, z+1/2'
12 'x, -y+1/2, -z+1/2'
13 'x+1/4, -y+3/4, z+3/4'
14 '-x+1/4, -y+3/4, -z+3/4'
15 '-x, y+1/2, -z+1/2'
16 'x, y+1/2, z+1/2'
17 'x+3/4, y+1/4, -z+3/4'
18 '-x+3/4, y+1/4, z+3/4'
19 '-x+1/2, -y, z+1/2'
20 'x+1/2, -y, -z+1/2'
21 'x+3/4, -y+1/4, z+3/4'
22 '-x+3/4, -y+1/4, -z+3/4'
23 '-x+1/2, y, -z+1/2'
24 'x+1/2, y, z+1/2'
25 'x+3/4, y+3/4, -z+1/4'
26 '-x+3/4, y+3/4, z+1/4'
27 '-x+1/2, -y+1/2, z'
28 'x+1/2, -y+1/2, -z'
29 'x+3/4, -y+3/4, z+1/4'
30 '-x+3/4, -y+3/4, -z+1/4'
31 '-x+1/2, y+1/2, -z'
32 'x+1/2, y+1/2, z'
loop_
_atom_type_symbol
_atom_type_oxidation_number
Sr2+ 2
N0+ -0.333
loop_
_atom_site_label
_atom_site_type_symbol
_atom_site_symmetry_multiplicity
_atom_site_Wyckoff_symbol
_atom_site_fract_x
_atom_site_fract_y
_atom_site_fract_z
_atom_site_B_iso_or_equiv
_atom_site_occupancy
_atom_site_attached_hydrogens
Sr1 Sr2+ 8 a 0 0 0 . 1. 0
N1 N0+ 16 e 0.383 0 0 . 1. 0
N2 N0+ 32 h 0.383 0.058 0.148 . 1. 0
#End of TTdata_30337-ICSD