
data_30405-ICSD
_database_code_ICSD 30405
_audit_creation_date 1980-01-01
_audit_update_record 2008-08-01
_chemical_name_systematic 'Tripotassium tetraperoxoniobate'
_chemical_formula_structural 'K3 (Nb (O2)4)'
_chemical_formula_sum 'K3 Nb1 O8'
_chemical_name_structure_type K3CrO8
_exptl_crystal_density_diffrn 3.09
_cell_length_a 6.79
_cell_length_b 6.79
_cell_length_c 7.88
_cell_angle_alpha 90.
_cell_angle_beta 90.
_cell_angle_gamma 90.
_cell_volume 363.3
_cell_formula_units_Z 2
_symmetry_space_group_name_H-M 'I -4 2 m'
_symmetry_Int_Tables_number 121
loop_
_symmetry_equiv_pos_site_id
_symmetry_equiv_pos_as_xyz
1 '-y, -x, z'
2 'y, x, z'
3 'y, -x, -z'
4 '-y, x, -z'
5 'x, -y, -z'
6 '-x, y, -z'
7 '-x, -y, z'
8 'x, y, z'
9 '-y+1/2, -x+1/2, z+1/2'
10 'y+1/2, x+1/2, z+1/2'
11 'y+1/2, -x+1/2, -z+1/2'
12 '-y+1/2, x+1/2, -z+1/2'
13 'x+1/2, -y+1/2, -z+1/2'
14 '-x+1/2, y+1/2, -z+1/2'
15 '-x+1/2, -y+1/2, z+1/2'
16 'x+1/2, y+1/2, z+1/2'
loop_
_atom_type_symbol
_atom_type_oxidation_number
Nb5+ 5
K1+ 1
O1- -1
loop_
_atom_site_label
_atom_site_type_symbol
_atom_site_symmetry_multiplicity
_atom_site_Wyckoff_symbol
_atom_site_fract_x
_atom_site_fract_y
_atom_site_fract_z
_atom_site_B_iso_or_equiv
_atom_site_occupancy
_atom_site_attached_hydrogens
Nb1 Nb5+ 2 a 0 0 0 . 1. 0
K1 K1+ 2 b 0 0 0.5 . 1. 0
K2 K1+ 4 d 0 0.5 0.25 . 1. 0
O1 O1- 8 i 0.142 0.142 0.2 . 1. 0
O2 O1- 8 i 0.219 0.219 0.056 . 1. 0
