
#(C) 2017 by FIZ Karlsruhe - Leibniz Institute for Information Infrastructure.  All rights reserved.
data_30433-ICSD
_database_code_ICSD 30433
_audit_creation_date 1980-01-01
_audit_update_record 2009-02-01
_chemical_name_systematic 'Dinickel diphosphate(V) - beta'
_chemical_formula_structural 'Ni2 (P2 O7)'
_chemical_formula_sum 'Ni2 O7 P2'
_chemical_name_structure_type Sc2Si2O7
_exptl_crystal_density_diffrn 4.16
_cell_measurement_temperature 850.
_publ_section_title

;
Crystal structure of beta-Ni2 P2 O7 determined on a Weissenberg goniometer
with a high-temperature attachment
;
loop_
_citation_id
_citation_journal_full
_citation_year
_citation_journal_volume
_citation_page_first
_citation_page_last
_citation_journal_id_ASTM
primary
'Bulletin de l'Academie Polonaise des Sciences, Serie des Sciences Chimiques' 1968 16 183 187 BAPCAQ
loop_
_publ_author_name
'Pietraszko, A.'
'Lukaszewicz, K.'
_cell_length_a 6.501
_cell_length_b 8.239
_cell_length_c 4.48
_cell_angle_alpha 90.
_cell_angle_beta 104.14
_cell_angle_gamma 90.
_cell_volume 232.69
_cell_formula_units_Z 2
_symmetry_space_group_name_H-M 'C 1 2/m 1'
_symmetry_Int_Tables_number 12
loop_
_symmetry_equiv_pos_site_id
_symmetry_equiv_pos_as_xyz
1 '-x, y, -z'
2 '-x, -y, -z'
3 'x, -y, z'
4 'x, y, z'
5 '-x+1/2, y+1/2, -z'
6 '-x+1/2, -y+1/2, -z'
7 'x+1/2, -y+1/2, z'
8 'x+1/2, y+1/2, z'
loop_
_atom_type_symbol
_atom_type_oxidation_number
Ni2+ 2
P5+ 5
O2- -2
loop_
_atom_site_label
_atom_site_type_symbol
_atom_site_symmetry_multiplicity
_atom_site_Wyckoff_symbol
_atom_site_fract_x
_atom_site_fract_y
_atom_site_fract_z
_atom_site_B_iso_or_equiv
_atom_site_occupancy
_atom_site_attached_hydrogens
Ni1 Ni2+ 4 h 0 0.310(1) 0.5 1.118 1. 0
P1 P5+ 4 i 0.210(1) 0 0.908(2) 0.432 1. 0
O1 O2- 2 a 0 0 0 5.2 1. 0
O2 O2- 4 i 0.387(4) 0 0.220(7) 1.391 1. 0
O3 O2- 8 j 0.218(3) 0.151(4) 0.721(5) 2.538 1. 0
#End of TTdata_30433-ICSD