
data_30447-ICSD
_database_code_ICSD 30447
_audit_creation_date 1980-01-01
_audit_update_record 2005-10-01
_chemical_name_systematic 'Cobalt boride (2/1)'
_chemical_formula_structural 'Co2 B'
_chemical_formula_sum 'B1 Co2'
_chemical_name_structure_type Fe2B
_exptl_crystal_density_diffrn 8.05
_cell_length_a 5.016
_cell_length_b 5.016
_cell_length_c 4.22
_cell_angle_alpha 90.
_cell_angle_beta 90.
_cell_angle_gamma 90.
_cell_volume 106.18
_cell_formula_units_Z 4
_symmetry_space_group_name_H-M 'I -4 2 m'
_symmetry_Int_Tables_number 121
loop_
_symmetry_equiv_pos_site_id
_symmetry_equiv_pos_as_xyz
1 '-y, -x, z'
2 'y, x, z'
3 'y, -x, -z'
4 '-y, x, -z'
5 'x, -y, -z'
6 '-x, y, -z'
7 '-x, -y, z'
8 'x, y, z'
9 '-y+1/2, -x+1/2, z+1/2'
10 'y+1/2, x+1/2, z+1/2'
11 'y+1/2, -x+1/2, -z+1/2'
12 '-y+1/2, x+1/2, -z+1/2'
13 'x+1/2, -y+1/2, -z+1/2'
14 '-x+1/2, y+1/2, -z+1/2'
15 '-x+1/2, -y+1/2, z+1/2'
16 'x+1/2, y+1/2, z+1/2'
loop_
_atom_type_symbol
_atom_type_oxidation_number
Co0+ 0
B0+ 0
loop_
_atom_site_label
_atom_site_type_symbol
_atom_site_symmetry_multiplicity
_atom_site_Wyckoff_symbol
_atom_site_fract_x
_atom_site_fract_y
_atom_site_fract_z
_atom_site_B_iso_or_equiv
_atom_site_occupancy
_atom_site_attached_hydrogens
Co1 Co0+ 8 i 0.167 0.167 0.25 . 1. 0
B1 B0+ 4 c 0.5 0 0 . 1. 0
