
#(C) 2017 by FIZ Karlsruhe - Leibniz Institute for Information Infrastructure.  All rights reserved.
data_30733-ICSD
_database_code_ICSD 30733
_audit_creation_date 1983-12-31
_audit_update_record 2014-02-01
_chemical_name_systematic 'Hafnium copper germanium (2/1/4)'
_chemical_formula_structural 'Hf2 Cu Ge4'
_chemical_formula_sum 'Cu1 Ge4 Hf2'
_chemical_name_structure_type CuHf2Ge4
_exptl_crystal_density_diffrn 10.17
_publ_section_title

;
Structures cristallines de Zr6 Cu8 Si12 et Hf2 Cu Ge4 et caracterisation d'une
famille de composes semimetalliques "pseudolamellaires" de formule Zr Si2 Cux
ou x= 0.5, 1 et 1.33
;
loop_
_citation_id
_citation_journal_full
_citation_year
_citation_journal_volume
_citation_page_first
_citation_page_last
_citation_journal_id_ASTM
primary 'Journal of the Less-Common Metals' 1983 95 47 54 JCOMAH
loop_
_publ_author_name
'Thirion, F.'
'Venturini, G.'
'Malaman, B.'
'Steinmetz, J.'
'Roques, B.'
_cell_length_a 3.758(1)
_cell_length_b 32.94(1)
_cell_length_c 3.749(1)
_cell_angle_alpha 90.
_cell_angle_beta 90.
_cell_angle_gamma 90.
_cell_volume 464.08
_cell_formula_units_Z 4
_symmetry_space_group_name_H-M 'C m c m'
_symmetry_Int_Tables_number 63
_refine_ls_R_factor_all 0.1
loop_
_symmetry_equiv_pos_site_id
_symmetry_equiv_pos_as_xyz
1 '-x, y, -z+1/2'
2 '-x, -y, z+1/2'
3 '-x, y, z'
4 '-x, -y, -z'
5 'x, -y, z+1/2'
6 'x, y, -z+1/2'
7 'x, -y, -z'
8 'x, y, z'
9 '-x+1/2, y+1/2, -z+1/2'
10 '-x+1/2, -y+1/2, z+1/2'
11 '-x+1/2, y+1/2, z'
12 '-x+1/2, -y+1/2, -z'
13 'x+1/2, -y+1/2, z+1/2'
14 'x+1/2, y+1/2, -z+1/2'
15 'x+1/2, -y+1/2, -z'
16 'x+1/2, y+1/2, z'
loop_
_atom_type_symbol
_atom_type_oxidation_number
Hf0+ 0
Cu0+ 0
Ge0+ 0
loop_
_atom_site_label
_atom_site_type_symbol
_atom_site_symmetry_multiplicity
_atom_site_Wyckoff_symbol
_atom_site_fract_x
_atom_site_fract_y
_atom_site_fract_z
_atom_site_B_iso_or_equiv
_atom_site_occupancy
_atom_site_attached_hydrogens
Hf1 Hf0+ 4 c 0 0.05 0.25 . 1. 0
Hf2 Hf0+ 4 c 0 0.325 0.25 . 1. 0
Cu1 Cu0+ 4 c 0 0.75 0.25 . 1. 0
Ge1 Ge0+ 4 c 0 0.475 0.25 . 1. 0
Ge2 Ge0+ 4 c 0 0.615 0.25 . 1. 0
Ge3 Ge0+ 4 c 0 0.885 0.25 . 1. 0
Ge4 Ge0+ 4 c 0 0.204 0.25 . 1. 0
#End of TTdata_30733-ICSD