
#(C) 2017 by FIZ Karlsruhe - Leibniz Institute for Information Infrastructure.  All rights reserved.
data_30732-ICSD
_database_code_ICSD 30732
_audit_creation_date 1983-12-31
_audit_update_record 2015-02-01
_chemical_name_systematic '6-zirconium 8-copper 12-silicide'
_chemical_formula_structural 'Zr6 Cu8 Si12'
_chemical_formula_sum 'Cu8 Si12 Zr6'
_exptl_crystal_density_diffrn 5.86
_publ_section_title

;
Structures cristallines de Zr6 Cu8 Si12 et Hf2 Cu Ge4 et caracterisation d'une
famille de composes semimetalliques "pseudolamellaires" de formule Zr Si2 Cux
ou x=0.5, 1 et 1.33
;
loop_
_citation_id
_citation_journal_full
_citation_year
_citation_journal_volume
_citation_page_first
_citation_page_last
_citation_journal_id_ASTM
primary 'Journal of the Less-Common Metals' 1983 95 47 54 JCOMAH
loop_
_publ_author_name
'Thirion, F.'
'Venturini, G.'
'Malaman, B.'
'Steinmetz, J.'
'Roques, B.'
_cell_length_a 3.738(2)
_cell_length_b 3.738(2)
_cell_length_c 28.223(8)
_cell_angle_alpha 90.
_cell_angle_beta 90.
_cell_angle_gamma 90.
_cell_volume 394.35
_cell_formula_units_Z 1
_symmetry_space_group_name_H-M 'I 4/m m m'
_symmetry_Int_Tables_number 139
_refine_ls_R_factor_all 0.07
loop_
_symmetry_equiv_pos_site_id
_symmetry_equiv_pos_as_xyz
1 'y, x, -z'
2 '-y, -x, -z'
3 '-y, x, -z'
4 'y, -x, -z'
5 '-x, y, -z'
6 'x, -y, -z'
7 'x, y, -z'
8 '-x, -y, -z'
9 '-y, -x, z'
10 'y, x, z'
11 'y, -x, z'
12 '-y, x, z'
13 'x, -y, z'
14 '-x, y, z'
15 '-x, -y, z'
16 'x, y, z'
17 'y+1/2, x+1/2, -z+1/2'
18 '-y+1/2, -x+1/2, -z+1/2'
19 '-y+1/2, x+1/2, -z+1/2'
20 'y+1/2, -x+1/2, -z+1/2'
21 '-x+1/2, y+1/2, -z+1/2'
22 'x+1/2, -y+1/2, -z+1/2'
23 'x+1/2, y+1/2, -z+1/2'
24 '-x+1/2, -y+1/2, -z+1/2'
25 '-y+1/2, -x+1/2, z+1/2'
26 'y+1/2, x+1/2, z+1/2'
27 'y+1/2, -x+1/2, z+1/2'
28 '-y+1/2, x+1/2, z+1/2'
29 'x+1/2, -y+1/2, z+1/2'
30 '-x+1/2, y+1/2, z+1/2'
31 '-x+1/2, -y+1/2, z+1/2'
32 'x+1/2, y+1/2, z+1/2'
loop_
_atom_type_symbol
_atom_type_oxidation_number
Zr0+ 0
Cu0+ 0
Si0+ 0
loop_
_atom_site_label
_atom_site_type_symbol
_atom_site_symmetry_multiplicity
_atom_site_Wyckoff_symbol
_atom_site_fract_x
_atom_site_fract_y
_atom_site_fract_z
_atom_site_B_iso_or_equiv
_atom_site_occupancy
_atom_site_attached_hydrogens
Zr1 Zr0+ 2 a 0 0 0 0.25(2) 1. 0
Zr2 Zr0+ 4 e 0 0 0.3256(1) 0.21(2) 1. 0
Cu1 Cu0+ 8 g 0 0.5 0.0902(1) 0.42(2) 1. 0
Si1 Si0+ 4 d 0 0.5 0.25 1.2(1) 1. 0
Si2 Si0+ 4 e 0 0 0.4594(2) 0.29(5) 1. 0
Si3 Si0+ 4 e 0 0 0.8540(2) 0.36(7) 1. 0
#End of TTdata_30732-ICSD