
#(C) 2017 by FIZ Karlsruhe - Leibniz Institute for Information Infrastructure.  All rights reserved.
data_31092-ICSD
_database_code_ICSD 31092
_audit_creation_date 1980-01-01
_audit_update_record 2013-02-01
_chemical_name_systematic 'Calcium duo-dicarbide'
_chemical_formula_structural 'Ca C2'
_chemical_formula_sum 'C2 Ca1'
_exptl_crystal_density_diffrn 2.25
_publ_section_title 'Die Kristallstruktur des Calciumcarbides.'
loop_
_citation_id
_citation_journal_full
_citation_year
_citation_journal_volume
_citation_page_first
_citation_page_last
_citation_journal_id_ASTM
primary

;
Zeitschrift fuer Kristallographie, Kristallgeometrie, Kristallphysik,
Kristallchemie (-144,1977)
; 1926 64 296 302 ZEKGAX
loop_
_publ_author_name
'Dehlinger, U.'
'Glocker, R.'
_cell_length_a 5.74(1)
_cell_length_b 5.74(1)
_cell_length_c 5.74(1)
_cell_angle_alpha 90.
_cell_angle_beta 90.
_cell_angle_gamma 90.
_cell_volume 189.12
_cell_formula_units_Z 4
_symmetry_space_group_name_H-M 'P n -3 S'
_symmetry_Int_Tables_number 201
loop_
_symmetry_equiv_pos_site_id
_symmetry_equiv_pos_as_xyz
1 '-z+1/2, x+1/2, y+1/2'
2 'z+1/2, x+1/2, -y+1/2'
3 'z+1/2, -x+1/2, y+1/2'
4 '-z+1/2, -x+1/2, -y+1/2'
5 'y+1/2, -z+1/2, x+1/2'
6 '-y+1/2, z+1/2, x+1/2'
7 'y+1/2, z+1/2, -x+1/2'
8 '-y+1/2, -z+1/2, -x+1/2'
9 'x+1/2, y+1/2, -z+1/2'
10 'x+1/2, -y+1/2, z+1/2'
11 '-x+1/2, y+1/2, z+1/2'
12 '-x+1/2, -y+1/2, -z+1/2'
13 'z, -x, -y'
14 '-z, -x, y'
15 '-z, x, -y'
16 'z, x, y'
17 '-y, z, -x'
18 'y, -z, -x'
19 '-y, -z, x'
20 'y, z, x'
21 '-x, -y, z'
22 '-x, y, -z'
23 'x, -y, -z'
24 'x, y, z'
loop_
_atom_type_symbol
_atom_type_oxidation_number
Ca2+ 2
C1- -1
loop_
_atom_site_label
_atom_site_type_symbol
_atom_site_symmetry_multiplicity
_atom_site_Wyckoff_symbol
_atom_site_fract_x
_atom_site_fract_y
_atom_site_fract_z
_atom_site_B_iso_or_equiv
_atom_site_occupancy
_atom_site_attached_hydrogens
Ca1 Ca2+ 4 b 0.25 0.25 0.25 . 1. 0
C1 C1- 8 e -.1 -.1 -.1 . 1. 0
#End of TTdata_31092-ICSD