
#(C) 2017 by FIZ Karlsruhe - Leibniz Institute for Information Infrastructure.  All rights reserved.
data_31141-ICSD
_database_code_ICSD 31141
_audit_creation_date 1980-01-01
_audit_update_record 2000-07-15
_chemical_name_systematic 'Cesium dihydrogenphosphate(V)'
_chemical_formula_structural 'Cs (H2 P O4)'
_chemical_formula_sum 'H2 Cs1 O4 P1'
_exptl_crystal_density_diffrn 3.47
_publ_section_title 'Strukturbestimmung von Cs H2 P O4.'
loop_
_citation_id
_citation_journal_full
_citation_year
_citation_journal_volume
_citation_page_first
_citation_page_last
_citation_journal_id_ASTM
primary 'Tschermaks Mineralogische und Petrographische Mitteilungen (-1978)'
1952 3 37 44 MPMTAG
loop_
_publ_author_name
'Fellner-Feldegg, H.'
_cell_length_a 4.802(33)
_cell_length_b 6.25(2)
_cell_length_c 14.65(24)
_cell_angle_alpha 90.
_cell_angle_beta 90.
_cell_angle_gamma 90.
_cell_volume 439.68
_cell_formula_units_Z 4
_symmetry_space_group_name_H-M 'B 2 m m'
_symmetry_Int_Tables_number 38
loop_
_symmetry_equiv_pos_site_id
_symmetry_equiv_pos_as_xyz
1 'x, y, -z'
2 'x, -y, z'
3 'x, -y, -z'
4 'x, y, z'
5 'x+1/2, y, -z+1/2'
6 'x+1/2, -y, z+1/2'
7 'x+1/2, -y, -z+1/2'
8 'x+1/2, y, z+1/2'
loop_
_atom_type_symbol
_atom_type_oxidation_number
Cs1+ 1
P5+ 5
O2- -2
H1+ 1
loop_
_atom_site_label
_atom_site_type_symbol
_atom_site_symmetry_multiplicity
_atom_site_Wyckoff_symbol
_atom_site_fract_x
_atom_site_fract_y
_atom_site_fract_z
_atom_site_B_iso_or_equiv
_atom_site_occupancy
_atom_site_attached_hydrogens
Cs1 Cs1+ 4 e 0 0.5 0.125 . 1. 0
P1 P5+ 4 d 0.333 0 0.14 . 1. 0
O1 O2- 4 d 0 0 0.095 . 1. 0
O2 O2- 4 d 0.333 0 0.25 . 1. 0
O3 O2- 8 f 0.5 0.211 0.095 . 1. 0
#End of TTdata_31141-ICSD