
#(C) 2017 by FIZ Karlsruhe - Leibniz Institute for Information Infrastructure.  All rights reserved.
data_31389-ICSD
_database_code_ICSD 31389
_audit_creation_date 1984-12-31
_audit_update_record 2007-08-01
_chemical_name_systematic 'Bismuth sulfide bromide'
_chemical_formula_structural 'Bi S Br'
_chemical_formula_sum 'Bi1 Br1 S1'
_chemical_name_structure_type PbCl2
_exptl_crystal_density_diffrn 6.54
_publ_section_title 'The crystal structure of bismuth sulfide bromide, Bi S Br'
loop_
_citation_id
_citation_journal_full
_citation_year
_citation_journal_volume
_citation_page_first
_citation_page_last
_citation_journal_id_ASTM
primary 'Zeitschrift fuer Kristallographie (1979-2010)' 1984 166 153 158 ZEKRDZ
loop_
_publ_author_name
'Voutsas, G.P.'
'Rentzeperis, P.J.'
_cell_length_a 8.1666(9)
_cell_length_b 9.8532(9)
_cell_length_c 4.0492(6)
_cell_angle_alpha 90.
_cell_angle_beta 90.
_cell_angle_gamma 90.
_cell_volume 325.83
_cell_formula_units_Z 4
_symmetry_space_group_name_H-M 'P n a m'
_symmetry_Int_Tables_number 62
_refine_ls_R_factor_all 0.066
loop_
_symmetry_equiv_pos_site_id
_symmetry_equiv_pos_as_xyz
1 'x+1/2, -y+1/2, z'
2 'x, y, -z+1/2'
3 '-x+1/2, y+1/2, z+1/2'
4 '-x, -y, -z'
5 '-x+1/2, y+1/2, -z'
6 '-x, -y, z+1/2'
7 'x+1/2, -y+1/2, -z+1/2'
8 'x, y, z'
loop_
_atom_type_symbol
_atom_type_oxidation_number
Bi3+ 3
S2- -2
Br1- -1
loop_
_atom_site_label
_atom_site_type_symbol
_atom_site_symmetry_multiplicity
_atom_site_Wyckoff_symbol
_atom_site_fract_x
_atom_site_fract_y
_atom_site_fract_z
_atom_site_B_iso_or_equiv
_atom_site_occupancy
_atom_site_attached_hydrogens
Bi1 Bi3+ 4 c 0.1373(1) 0.1306 0.25 . 1. 0
S1 S2- 4 c 0.8325(6) 0.0522(5) 0.25 . 1. 0
Br1 Br1- 4 c 0.5114(3) 0.8246(3) 0.25 . 1. 0
loop_
_atom_site_aniso_label
_atom_site_aniso_type_symbol
_atom_site_aniso_U_11
_atom_site_aniso_U_22
_atom_site_aniso_U_33
_atom_site_aniso_U_12
_atom_site_aniso_U_13
_atom_site_aniso_U_23
Bi1 Bi3+ 0.0098(5) 0.0124(5) 0.0195(5) -0.0027(2) 0 0
S1 S2- 0.0076(18) 0.0108(19) 0.0215(25) 0.0008(15) 0 0
Br1 Br1- 0.0153(9) 0.0151(10) 0.0246(12) -0.0021(7) 0 0
#End of TTdata_31389-ICSD