
data_31973-ICSD
_database_code_ICSD 31973
_audit_creation_date 1980-01-01
_audit_update_record 2013-02-01
_chemical_name_systematic 'Niobium(II) carbide - xi'
_chemical_formula_structural 'Nb2 C'
_chemical_formula_sum 'C1 Nb2'
_exptl_crystal_density_diffrn 7.83
_cell_length_a 10.92
_cell_length_b 4.974
_cell_length_c 3.09
_cell_angle_alpha 90.
_cell_angle_beta 90.
_cell_angle_gamma 90.
_cell_volume 167.84
_cell_formula_units_Z 4
_symmetry_space_group_name_H-M 'P n a 21'
_symmetry_Int_Tables_number 33
loop_
_symmetry_equiv_pos_site_id
_symmetry_equiv_pos_as_xyz
1 'x+1/2, -y+1/2, z'
2 '-x+1/2, y+1/2, z+1/2'
3 '-x, -y, z+1/2'
4 'x, y, z'
loop_
_atom_type_symbol
_atom_type_oxidation_number
C4- -4
Nb2+ 2
loop_
_atom_site_label
_atom_site_type_symbol
_atom_site_symmetry_multiplicity
_atom_site_Wyckoff_symbol
_atom_site_fract_x
_atom_site_fract_y
_atom_site_fract_z
_atom_site_B_iso_or_equiv
_atom_site_occupancy
_atom_site_attached_hydrogens
C1 C4- 4 a 0.375 0 0 . 1. 0
Nb1 Nb2+ 4 a 0.0417 0.75 0 . 1. 0
Nb2 Nb2+ 4 a 0.2083 0.25 0 . 1. 0
