
#(C) 2017 by FIZ Karlsruhe - Leibniz Institute for Information Infrastructure.  All rights reserved.
data_32001-ICSD
_database_code_ICSD 32001
_audit_creation_date 1980-01-01
_chemical_name_systematic 'Tungsten oxide'
_chemical_formula_structural 'W O3'
_chemical_formula_sum 'O3 W1'
_exptl_crystal_density_diffrn 6.42
_publ_section_title
'Structural study of a new hexagonal form of tungsten trioxide'
loop_
_citation_id
_citation_journal_full
_citation_year
_citation_journal_volume
_citation_page_first
_citation_page_last
_citation_journal_id_ASTM
primary 'Journal of Solid State Chemistry' 1979 29 429 434 JSSCBI
loop_
_publ_author_name
'Gerand, B.'
'Novogorocki, G.'
'Guenot, J.'
'Figlarz, M.'
_cell_length_a 7.298(2)
_cell_length_b 7.298(2)
_cell_length_c 3.899(2)
_cell_angle_alpha 90.
_cell_angle_beta 90.
_cell_angle_gamma 120.
_cell_volume 179.84
_cell_formula_units_Z 3
_symmetry_space_group_name_H-M 'P 6/m m m'
_symmetry_Int_Tables_number 191
_refine_ls_R_factor_all 0.055
loop_
_symmetry_equiv_pos_site_id
_symmetry_equiv_pos_as_xyz
1 '-x, -x+y, -z'
2 'x-y, -y, -z'
3 'y, x, -z'
4 '-x+y, -x, -z'
5 '-y, x-y, -z'
6 'x, y, -z'
7 'x, x-y, -z'
8 '-x+y, y, -z'
9 '-y, -x, -z'
10 'x-y, x, -z'
11 'y, -x+y, -z'
12 '-x, -y, -z'
13 'x, x-y, z'
14 '-x+y, y, z'
15 '-y, -x, z'
16 'x-y, x, z'
17 'y, -x+y, z'
18 '-x, -y, z'
19 '-x, -x+y, z'
20 'x-y, -y, z'
21 'y, x, z'
22 '-x+y, -x, z'
23 '-y, x-y, z'
24 'x, y, z'
loop_
_atom_type_symbol
_atom_type_oxidation_number
W6+ 6
O2- -2
loop_
_atom_site_label
_atom_site_type_symbol
_atom_site_symmetry_multiplicity
_atom_site_Wyckoff_symbol
_atom_site_fract_x
_atom_site_fract_y
_atom_site_fract_z
_atom_site_B_iso_or_equiv
_atom_site_occupancy
_atom_site_attached_hydrogens
W1 W6+ 3 f 0.5 0 0 . 1. 0
O1 O2- 3 g 0.5 0 0.5 6.3 1. 0
O2 O2- 6 l 0.212(6) 0.424 0 5.2 1. 0
loop_
_atom_site_aniso_label
_atom_site_aniso_type_symbol
_atom_site_aniso_beta_11
_atom_site_aniso_beta_22
_atom_site_aniso_beta_33
_atom_site_aniso_beta_12
_atom_site_aniso_beta_13
_atom_site_aniso_beta_23
W1 W6+ 0.015(4) 0.013(6) 0.057(9) 0.006(6) 0 0
#End of TTdata_32001-ICSD