
#(C) 2017 by FIZ Karlsruhe - Leibniz Institute for Information Infrastructure.  All rights reserved.
data_32529-ICSD
_database_code_ICSD 32529
_audit_creation_date 1982-12-31
_audit_update_record 2007-08-01
_chemical_name_systematic 'Lanthanum(II) perselenide'
_chemical_formula_structural 'La Se2'
_chemical_formula_sum 'La1 Se2'
_chemical_name_structure_type CeSe2
_exptl_crystal_density_diffrn 6.34
_publ_section_title

;
Structure du diseleniure de lanthane stoechiometrique la Se2. I. Cristaux
macles suivant la loi(100): Forme B
;
loop_
_citation_id
_citation_journal_full
_citation_year
_citation_journal_volume
_citation_page_first
_citation_page_last
_citation_journal_id_ASTM
primary 'Acta Crystallographica B (24,1968-38,1982)' 1982 38 33 37 ACBCAR
loop_
_publ_author_name
'Benazeth, S.'
'Carre, D.'
'Laruelle, P.'
_cell_length_a 8.51(1)
_cell_length_b 8.58(1)
_cell_length_c 4.26(1)
_cell_angle_alpha 90.
_cell_angle_beta 90.
_cell_angle_gamma 90.12(2)
_cell_volume 311.05
_cell_formula_units_Z 4
_symmetry_space_group_name_H-M 'P 1 1 21/a'
_symmetry_Int_Tables_number 14
_refine_ls_R_factor_all 0.04
loop_
_symmetry_equiv_pos_site_id
_symmetry_equiv_pos_as_xyz
1 'x+1/2, y, -z+1/2'
2 '-x, -y, -z'
3 '-x+1/2, -y, z+1/2'
4 'x, y, z'
loop_
_atom_type_symbol
_atom_type_oxidation_number
La2+ 2
Se1- -1
loop_
_atom_site_label
_atom_site_type_symbol
_atom_site_symmetry_multiplicity
_atom_site_Wyckoff_symbol
_atom_site_fract_x
_atom_site_fract_y
_atom_site_fract_z
_atom_site_B_iso_or_equiv
_atom_site_occupancy
_atom_site_attached_hydrogens
La1 La2+ 4 e 0.3719(2) 0.2761(1) 0.2803(2) . 1. 0
Se1 Se1- 4 e 0.6250(4) 0.3657(1) 0.7417(4) . 1. 0
Se2 Se1- 4 e 0.3850(3) 0.0028(2) 0.8267(3) . 1. 0
loop_
_atom_site_aniso_label
_atom_site_aniso_type_symbol
_atom_site_aniso_U_11
_atom_site_aniso_U_22
_atom_site_aniso_U_33
_atom_site_aniso_U_12
_atom_site_aniso_U_13
_atom_site_aniso_U_23
La1 La2+ 0.0085(3) 0.0095(3) 0.0090(3) -.0024(7) -.0007(5) 0.0007(3)
Se1 Se1- 0.0104(5) 0.0100(4) 0.0106(5) -.0024(14) -.0004(6) 0.0000(6)
Se2 Se1- 0.0108(6) 0.0090(5) 0.0120(6) 0.0005(10) -.0027(7) 0.0004(4)
#End of TTdata_32529-ICSD