
#(C) 2017 by FIZ Karlsruhe - Leibniz Institute for Information Infrastructure.  All rights reserved.
data_32544-ICSD
_database_code_ICSD 32544
_audit_creation_date 1982-12-31
_chemical_name_systematic 'Rubidium heptabromodimanganate(II)'
_chemical_formula_structural 'Rb3 Mn2 Br7'
_chemical_formula_sum 'Br7 Mn2 Rb3'
_chemical_name_structure_type Rb3Mn2Cl7
_exptl_crystal_density_diffrn 3.83
_publ_section_title 'Structure of Trirubidium Heptabromomanganate'
loop_
_citation_id
_citation_journal_full
_citation_year
_citation_journal_volume
_citation_page_first
_citation_page_last
_citation_journal_id_ASTM
primary 'Acta Crystallographica B (24,1968-38,1982)' 1982 38 600 602 ACBCAR
loop_
_publ_author_name
'Goodyear, J.'
'Ali, E.M.'
'Sutherland, H.H.'
_cell_length_a 5.37(1)
_cell_length_b 5.37(1)
_cell_length_c 27.80(5)
_cell_angle_alpha 90.
_cell_angle_beta 90.
_cell_angle_gamma 90.
_cell_volume 801.67
_cell_formula_units_Z 2
_symmetry_space_group_name_H-M 'I 4/m m m'
_symmetry_Int_Tables_number 139
_refine_ls_R_factor_all 0.01
loop_
_symmetry_equiv_pos_site_id
_symmetry_equiv_pos_as_xyz
1 'y, x, -z'
2 '-y, -x, -z'
3 '-y, x, -z'
4 'y, -x, -z'
5 '-x, y, -z'
6 'x, -y, -z'
7 'x, y, -z'
8 '-x, -y, -z'
9 '-y, -x, z'
10 'y, x, z'
11 'y, -x, z'
12 '-y, x, z'
13 'x, -y, z'
14 '-x, y, z'
15 '-x, -y, z'
16 'x, y, z'
17 'y+1/2, x+1/2, -z+1/2'
18 '-y+1/2, -x+1/2, -z+1/2'
19 '-y+1/2, x+1/2, -z+1/2'
20 'y+1/2, -x+1/2, -z+1/2'
21 '-x+1/2, y+1/2, -z+1/2'
22 'x+1/2, -y+1/2, -z+1/2'
23 'x+1/2, y+1/2, -z+1/2'
24 '-x+1/2, -y+1/2, -z+1/2'
25 '-y+1/2, -x+1/2, z+1/2'
26 'y+1/2, x+1/2, z+1/2'
27 'y+1/2, -x+1/2, z+1/2'
28 '-y+1/2, x+1/2, z+1/2'
29 'x+1/2, -y+1/2, z+1/2'
30 '-x+1/2, y+1/2, z+1/2'
31 '-x+1/2, -y+1/2, z+1/2'
32 'x+1/2, y+1/2, z+1/2'
loop_
_atom_type_symbol
_atom_type_oxidation_number
Mn2+ 2
Rb1+ 1
Br1- -1
loop_
_atom_site_label
_atom_site_type_symbol
_atom_site_symmetry_multiplicity
_atom_site_Wyckoff_symbol
_atom_site_fract_x
_atom_site_fract_y
_atom_site_fract_z
_atom_site_B_iso_or_equiv
_atom_site_occupancy
_atom_site_attached_hydrogens
Mn1 Mn2+ 4 e 0 0 0.4021(8) 1.42 1. 0
Rb1 Rb1+ 4 e 0 0 0.1899(6) 2.37 1. 0
Rb2 Rb1+ 2 a 0 0 0 1.76 1. 0
Br1 Br1- 2 b 0 0 0.5 1.6 1. 0
Br2 Br1- 4 e 0 0 0.3091(5) 1.59 1. 0
Br3 Br1- 8 g 0 0.5 0.1002(4) 1.86 1. 0
#End of TTdata_32544-ICSD