
data_32578-ICSD
_database_code_ICSD 32578
_audit_creation_date 1982-12-31
_audit_update_record 1999-11-30
_chemical_name_systematic 'Copper(I) thiocyanate - beta'
_chemical_formula_structural 'Cu N C S'
_chemical_formula_sum 'C1 Cu1 N1 S1'
_exptl_crystal_density_diffrn 2.88
_cell_length_a 3.850(3)
_cell_length_b 3.850(3)
_cell_length_c 10.937(3)
_cell_angle_alpha 90.
_cell_angle_beta 90.
_cell_angle_gamma 120.
_cell_volume 140.39
_cell_formula_units_Z 2
_symmetry_space_group_name_H-M 'P 63 m c'
_symmetry_Int_Tables_number 186
_refine_ls_R_factor_all 0.059
loop_
_symmetry_equiv_pos_site_id
_symmetry_equiv_pos_as_xyz
1 '-x, -x+y, z+1/2'
2 'x-y, -y, z+1/2'
3 'y, x, z+1/2'
4 'x-y, x, z+1/2'
5 'y, -x+y, z+1/2'
6 '-x, -y, z+1/2'
7 'x, x-y, z'
8 '-x+y, y, z'
9 '-y, -x, z'
10 '-x+y, -x, z'
11 '-y, x-y, z'
12 'x, y, z'
loop_
_atom_type_symbol
_atom_type_oxidation_number
Cu1+ 1
N3- -3
C4+ 4
S2- -2
loop_
_atom_site_label
_atom_site_type_symbol
_atom_site_symmetry_multiplicity
_atom_site_Wyckoff_symbol
_atom_site_fract_x
_atom_site_fract_y
_atom_site_fract_z
_atom_site_B_iso_or_equiv
_atom_site_occupancy
_atom_site_attached_hydrogens
Cu1 Cu1+ 2 b 0.3333 0.6667 0 . 1. 0
N1 N3- 2 b 0.3333 0.6667 0.1764(22) . 1. 0
C1 C4+ 2 b 0.3333 0.6667 0.2770(23) . 1. 0
S1 S2- 2 b 0.3333 0.6667 0.4328(5) . 1. 0
loop_
_atom_site_aniso_label
_atom_site_aniso_type_symbol
_atom_site_aniso_B_11
_atom_site_aniso_B_22
_atom_site_aniso_B_33
_atom_site_aniso_B_12
_atom_site_aniso_B_13
_atom_site_aniso_B_23
Cu1 Cu1+ 2.3(7) 2.3(7) 1.56(6) 1.15 0 0
N1 N3- 3.7(8) 3.7(8) 1.7(6) 1.85 0 0
C1 C4+ 1.5(6) 1.5(6) 2.4(8) 0.75 0 0
S1 S2- 1.9(2) 1.9(2) 1.8(2) 0.95 0 0
