
#(C) 2017 by FIZ Karlsruhe - Leibniz Institute for Information Infrastructure.  All rights reserved.
data_32642-ICSD
_database_code_ICSD 32642
_audit_creation_date 1981-12-31
_chemical_name_systematic 'Lead chloride iodide'
_chemical_formula_structural 'Pb Cl I'
_chemical_formula_sum 'Cl1 I1 Pb1'
_chemical_name_structure_type PbCl2
_exptl_crystal_density_diffrn 6.72
_publ_section_title 'X-ray study of the Pb Cl2-x Ix and Pb Br2-x Ix systems'
loop_
_citation_id
_citation_journal_full
_citation_year
_citation_journal_volume
_citation_page_first
_citation_page_last
_citation_journal_id_ASTM
primary 'Journal of Solid State Chemistry' 1981 40 336 343 JSSCBI
loop_
_publ_author_name
'Brixner, L.H.'
'Chen, H.-Y.'
'Foris, C.M.'
_cell_length_a 9.669(10)
_cell_length_b 8.200(3)
_cell_length_c 4.605(2)
_cell_angle_alpha 90.
_cell_angle_beta 90.
_cell_angle_gamma 90.
_cell_volume 365.11
_cell_formula_units_Z 4
_symmetry_space_group_name_H-M 'P b n m'
_symmetry_Int_Tables_number 62
_refine_ls_R_factor_all 0.063
loop_
_symmetry_equiv_pos_site_id
_symmetry_equiv_pos_as_xyz
1 '-x+1/2, y+1/2, z'
2 'x, y, -z+1/2'
3 'x+1/2, -y+1/2, z+1/2'
4 '-x, -y, -z'
5 'x+1/2, -y+1/2, -z'
6 '-x, -y, z+1/2'
7 '-x+1/2, y+1/2, -z+1/2'
8 'x, y, z'
loop_
_atom_type_symbol
_atom_type_oxidation_number
Pb2+ 2
Cl1- -1
I1- -1
loop_
_atom_site_label
_atom_site_type_symbol
_atom_site_symmetry_multiplicity
_atom_site_Wyckoff_symbol
_atom_site_fract_x
_atom_site_fract_y
_atom_site_fract_z
_atom_site_B_iso_or_equiv
_atom_site_occupancy
_atom_site_attached_hydrogens
Pb1 Pb2+ 4 c 0.1240(2) 0.2082(2) 0.25 . 1. 0
Cl1 Cl1- 4 c 0.0596(9) 0.859(1) 0.25 . 1. 0
I1 I1- 4 c 0.8305(2) 0.4703(3) 0.25 . 1. 0
loop_
_atom_site_aniso_label
_atom_site_aniso_type_symbol
_atom_site_aniso_beta_11
_atom_site_aniso_beta_22
_atom_site_aniso_beta_33
_atom_site_aniso_beta_12
_atom_site_aniso_beta_13
_atom_site_aniso_beta_23
Pb1 Pb2+ 0.0093(3) 0.0114(2) 0.0355(8) -.0036(4) 0 0
Cl1 Cl1- 0.0044(7) 0.005(1) 0.031(4) 0.000(2) 0 0
I1 I1- 0.0039(2) 0.0054(2) 0.0253(9) 0.0002(4) 0 0
#End of TTdata_32642-ICSD