
#(C) 2017 by FIZ Karlsruhe - Leibniz Institute for Information Infrastructure.  All rights reserved.
data_33265-ICSD
_database_code_ICSD 33265
_audit_creation_date 1985-03-07
_chemical_name_systematic 'Calcium iodide tetrahydrate'
_chemical_formula_structural 'Ca I2 (H2 O)4'
_chemical_formula_sum 'H8 Ca1 I2 O4'
_chemical_name_structure_type FeCl2(H2O)4
_exptl_crystal_density_diffrn 2.51
_publ_section_title
'Die Kristallstrukturen der Hydrate Ca I2 (H2 O)6.6 und Ca I2 (H2 O)4'
loop_
_citation_id
_citation_journal_full
_citation_year
_citation_journal_volume
_citation_page_first
_citation_page_last
_citation_journal_id_ASTM
primary 'Zeitschrift fuer Anorganische und Allgemeine Chemie (1950) (DE)' 1984
519 217 224 ZAACAB
loop_
_publ_author_name
'Thiele, G.'
'Putzas, D.'
_cell_length_a 6.825(9)
_cell_length_b 7.846(2)
_cell_length_c 9.6371(15)
_cell_angle_alpha 90.
_cell_angle_beta 110.47(12)
_cell_angle_gamma 90.
_cell_volume 483.47
_cell_formula_units_Z 2
_symmetry_space_group_name_H-M 'P 1 21/c 1'
_symmetry_Int_Tables_number 14
_refine_ls_R_factor_all 0.0488
loop_
_symmetry_equiv_pos_site_id
_symmetry_equiv_pos_as_xyz
1 'x, -y+1/2, z+1/2'
2 '-x, -y, -z'
3 '-x, y+1/2, -z+1/2'
4 'x, y, z'
loop_
_atom_type_symbol
_atom_type_oxidation_number
I1- -1
Ca2+ 2
O2- -2
H1+ 1
loop_
_atom_site_label
_atom_site_type_symbol
_atom_site_symmetry_multiplicity
_atom_site_Wyckoff_symbol
_atom_site_fract_x
_atom_site_fract_y
_atom_site_fract_z
_atom_site_B_iso_or_equiv
_atom_site_occupancy
_atom_site_attached_hydrogens
I1 I1- 4 e 0.3185(1) 0.3024(1) 0.0819(1) . 1. 0
Ca1 Ca2+ 2 a 0 0 0 . 1. 0
O1 O2- 4 e 0.2677(9) -.1974(9) 0.0595(8) . 1. 0
O2 O2- 4 e -.009(1) -.496(1) 0.2594(6) . 1. 0
loop_
_atom_site_aniso_label
_atom_site_aniso_type_symbol
_atom_site_aniso_U_11
_atom_site_aniso_U_22
_atom_site_aniso_U_33
_atom_site_aniso_U_12
_atom_site_aniso_U_13
_atom_site_aniso_U_23
I1 I1- 0.0388(8) 0.032(1) 0.0402(8) -.0014(9) 0.0167(7) 0.0006(9)
Ca1 Ca2+ 0.0464(3) 0.0505(5) 0.0531(3) -.0023(3) 0.0198(2) -.0103(3)
O1 O2- 0.058(1) 0.073(2) 0.112(2) -.005(2) 0.021(1) 0.025(2)
O2 O2- 0.105(2) 0.074(2) 0.054(1) 0.006(2) 0.041(1) 0.028(2)
#End of TTdata_33265-ICSD