
#(C) 2017 by FIZ Karlsruhe - Leibniz Institute for Information Infrastructure.  All rights reserved.
data_33522-ICSD
_database_code_ICSD 33522
_audit_creation_date 1982-12-31
_chemical_name_systematic 'Dipotassium cobalt fluoride'
_chemical_formula_structural 'K2 Co F4'
_chemical_formula_sum 'Co1 F4 K2'
_chemical_name_structure_type K2MgF4
_exptl_crystal_density_diffrn 3.26
_publ_section_title

;
Abstands- und Koordinations-Verhaeltnisse in den Schichtstrukturen der
ternaeren Fluoride K2MF4 und K3M2F7 (M(II) = Mg, Mn, Co - Zn)
;
loop_
_citation_id
_citation_journal_full
_citation_year
_citation_journal_volume
_citation_page_first
_citation_page_last
_citation_journal_id_ASTM
primary 'Zeitschrift fuer Anorganische und Allgemeine Chemie (1950) (DE)' 1982
487 75 84 ZAACAB
loop_
_publ_author_name
'Babel, D.'
'Herdtweck, E.'
_cell_length_a 4.073
_cell_length_b 4.073
_cell_length_c 13.087
_cell_angle_alpha 90.
_cell_angle_beta 90.
_cell_angle_gamma 90.
_cell_volume 217.1
_cell_formula_units_Z 2
_symmetry_space_group_name_H-M 'I 4/m m m'
_symmetry_Int_Tables_number 139
_refine_ls_R_factor_all 0.0382
loop_
_symmetry_equiv_pos_site_id
_symmetry_equiv_pos_as_xyz
1 'y, x, -z'
2 '-y, -x, -z'
3 '-y, x, -z'
4 'y, -x, -z'
5 '-x, y, -z'
6 'x, -y, -z'
7 'x, y, -z'
8 '-x, -y, -z'
9 '-y, -x, z'
10 'y, x, z'
11 'y, -x, z'
12 '-y, x, z'
13 'x, -y, z'
14 '-x, y, z'
15 '-x, -y, z'
16 'x, y, z'
17 'y+1/2, x+1/2, -z+1/2'
18 '-y+1/2, -x+1/2, -z+1/2'
19 '-y+1/2, x+1/2, -z+1/2'
20 'y+1/2, -x+1/2, -z+1/2'
21 '-x+1/2, y+1/2, -z+1/2'
22 'x+1/2, -y+1/2, -z+1/2'
23 'x+1/2, y+1/2, -z+1/2'
24 '-x+1/2, -y+1/2, -z+1/2'
25 '-y+1/2, -x+1/2, z+1/2'
26 'y+1/2, x+1/2, z+1/2'
27 'y+1/2, -x+1/2, z+1/2'
28 '-y+1/2, x+1/2, z+1/2'
29 'x+1/2, -y+1/2, z+1/2'
30 '-x+1/2, y+1/2, z+1/2'
31 '-x+1/2, -y+1/2, z+1/2'
32 'x+1/2, y+1/2, z+1/2'
loop_
_atom_type_symbol
_atom_type_oxidation_number
K1+ 1
Co2+ 2
F1- -1
loop_
_atom_site_label
_atom_site_type_symbol
_atom_site_symmetry_multiplicity
_atom_site_Wyckoff_symbol
_atom_site_fract_x
_atom_site_fract_y
_atom_site_fract_z
_atom_site_B_iso_or_equiv
_atom_site_occupancy
_atom_site_attached_hydrogens
K1 K1+ 4 e 0 0 0.3543(1) . 1. 0
Co1 Co2+ 2 a 0 0 0 . 1. 0
F1 F1- 4 e 0 0 0.1547(2) . 1. 0
F2 F1- 4 c 0.5 0 0 . 1. 0
loop_
_atom_site_aniso_label
_atom_site_aniso_type_symbol
_atom_site_aniso_U_11
_atom_site_aniso_U_22
_atom_site_aniso_U_33
_atom_site_aniso_U_12
_atom_site_aniso_U_13
_atom_site_aniso_U_23
K1 K1+ 0.0198(2) 0.0198(2) 0.0123(2) 0 0 0
Co1 Co2+ 0.0087(1) 0.0087(1) 0.0087(2) 0 0 0
F1 F1- 0.0236(6) 0.0236(6) 0.0106(6) 0 0 0
F2 F1- 0.0098(6) 0.0193(8) 0.0213(9) 0 0 0
#End of TTdata_33522-ICSD