
#(C) 2017 by FIZ Karlsruhe - Leibniz Institute for Information Infrastructure.  All rights reserved.
data_33906-ICSD
_database_code_ICSD 33906
_audit_creation_date 1992-01-20
_chemical_name_systematic 'Tetrabarium diphosphide oxide'
_chemical_formula_structural 'Ba4 P2 O'
_chemical_formula_sum 'Ba4 O1 P2'
_exptl_crystal_density_diffrn 4.74
_publ_section_title

;
Darstellung und Kristallstruktur der Strontium- und Bariumpnictidoxide Sr4P2O,
Sr4As2O, Ba4P2O und Ba4As2O
;
loop_
_citation_id
_citation_journal_full
_citation_year
_citation_journal_volume
_citation_page_first
_citation_page_last
_citation_journal_id_ASTM
primary 'Zeitschrift fuer Anorganische und Allgemeine Chemie (1950) (DE)' 1991
597 69 78 ZAACAB
loop_
_publ_author_name
'Hadenfeldt, C.'
'Terschueren, H.U.'
_cell_length_a 7.335(1)
_cell_length_b 7.164(1)
_cell_length_c 16.732(3)
_cell_angle_alpha 90.
_cell_angle_beta 90.
_cell_angle_gamma 90.
_cell_volume 879.23
_cell_formula_units_Z 4
_symmetry_space_group_name_H-M 'A b m a'
_symmetry_Int_Tables_number 64
_refine_ls_R_factor_all 0.043
loop_
_symmetry_equiv_pos_site_id
_symmetry_equiv_pos_as_xyz
1 'x+1/2, -y, -z+1/2'
2 '-x+1/2, -y, z+1/2'
3 'x, -y, z'
4 '-x, -y, -z'
5 '-x+1/2, y, z+1/2'
6 'x+1/2, y, -z+1/2'
7 '-x, y, -z'
8 'x, y, z'
9 'x+1/2, -y+1/2, -z'
10 '-x+1/2, -y+1/2, z'
11 'x, -y+1/2, z+1/2'
12 '-x, -y+1/2, -z+1/2'
13 '-x+1/2, y+1/2, z'
14 'x+1/2, y+1/2, -z'
15 '-x, y+1/2, -z+1/2'
16 'x, y+1/2, z+1/2'
loop_
_atom_type_symbol
_atom_type_oxidation_number
Ba2+ 2
P3- -3
O2- -2
loop_
_atom_site_label
_atom_site_type_symbol
_atom_site_symmetry_multiplicity
_atom_site_Wyckoff_symbol
_atom_site_fract_x
_atom_site_fract_y
_atom_site_fract_z
_atom_site_B_iso_or_equiv
_atom_site_occupancy
_atom_site_attached_hydrogens
Ba1 Ba2+ 8 e 0.25 0.25 0.0143(1) . 1. 0
Ba2 Ba2+ 8 f 0.9512(2) 0 0.1770(1) . 1. 0
P1 P3- 8 f 0.0159(6) 0 0.3661(3) . 1. 0
O1 O2- 4 a 0 0 0 0.02(1) 1. 0
loop_
_atom_site_aniso_label
_atom_site_aniso_type_symbol
_atom_site_aniso_U_11
_atom_site_aniso_U_22
_atom_site_aniso_U_33
_atom_site_aniso_U_12
_atom_site_aniso_U_13
_atom_site_aniso_U_23
Ba1 Ba2+ 0.0160(4) 0.0138(4) 0.0265(5) -.0086(5) 0 0
Ba2 Ba2+ 0.0264(5) 0.0314(6) 0.0124(4) 0 -.0019(5) 0
P1 P3- 0.020(2) 0.023(2) 0.012(2) 0 -.0003(16) 0
#End of TTdata_33906-ICSD