
#(C) 2017 by FIZ Karlsruhe - Leibniz Institute for Information Infrastructure.  All rights reserved.
data_34307-ICSD
_database_code_ICSD 34307
_audit_creation_date 1980-01-01
_audit_update_record 2006-04-01
_chemical_name_systematic 'Nickel fluoride - HP'
_chemical_formula_structural 'Ni F2'
_chemical_formula_sum 'F2 Ni1'
_chemical_name_structure_type CaCl2
_exptl_crystal_density_diffrn 4.82
_publ_section_title
'High pressure transformations of transition metal difluorides'
loop_
_citation_id
_citation_journal_full
_citation_year
_citation_journal_volume
_citation_page_first
_citation_page_last
_citation_journal_id_ASTM
primary 'Journal of Physics and Chemistry of Solids' 1969 30 1282 1285 JPCSAW
loop_
_publ_author_name
'Austin, A.E.'
_cell_length_a 4.56(1)
_cell_length_b 4.77(1)
_cell_length_c 3.065(5)
_cell_angle_alpha 90.
_cell_angle_beta 90.
_cell_angle_gamma 90.
_cell_volume 66.67
_cell_formula_units_Z 2
_symmetry_space_group_name_H-M 'P n n m'
_symmetry_Int_Tables_number 58
_refine_ls_R_factor_all 0.33
loop_
_symmetry_equiv_pos_site_id
_symmetry_equiv_pos_as_xyz
1 'x+1/2, -y+1/2, z+1/2'
2 '-x+1/2, y+1/2, z+1/2'
3 'x, y, -z'
4 '-x, -y, -z'
5 '-x+1/2, y+1/2, -z+1/2'
6 'x+1/2, -y+1/2, -z+1/2'
7 '-x, -y, z'
8 'x, y, z'
loop_
_atom_type_symbol
_atom_type_oxidation_number
Ni2+ 2
F1- -1
loop_
_atom_site_label
_atom_site_type_symbol
_atom_site_symmetry_multiplicity
_atom_site_Wyckoff_symbol
_atom_site_fract_x
_atom_site_fract_y
_atom_site_fract_z
_atom_site_B_iso_or_equiv
_atom_site_occupancy
_atom_site_attached_hydrogens
Ni1 Ni2+ 2 a 0 0 0 . 1. 0
F1 F1- 4 g 0.282(7) 0.315(7) 0 . 1. 0
#End of TTdata_34307-ICSD