
#(C) 2017 by FIZ Karlsruhe - Leibniz Institute for Information Infrastructure.  All rights reserved.
data_34450-ICSD
_database_code_ICSD 34450
_audit_creation_date 1980-01-01
_audit_update_record 2012-08-01
_chemical_name_systematic 'Copper arsenic sulfide (1/1/1)'
_chemical_formula_structural 'Cu As S'
_chemical_formula_sum 'As1 Cu1 S1'
_chemical_name_structure_type CuAsS
_chemical_name_mineral Lautite
_exptl_crystal_density_diffrn 4.87
_publ_section_title

;
The crystal structure of lautite and of sinnerite, a new mineral from the
Lengenbach quarry
;
loop_
_citation_id
_citation_journal_full
_citation_year
_citation_journal_volume
_citation_page_first
_citation_page_last
_citation_journal_id_ASTM
primary 'Schweizerische Mineralogische und Petrographische Mitteilungen' 1964 44
439 454 SMPTA8
loop_
_publ_author_name
'Marumo, F.'
'Nowacki, W.'
_cell_length_a 11.356(8)
_cell_length_b 3.754(5)
_cell_length_c 5.453(5)
_cell_angle_alpha 90.
_cell_angle_beta 90.
_cell_angle_gamma 90.
_cell_volume 232.46
_cell_formula_units_Z 4
_symmetry_space_group_name_H-M 'P n m a'
_symmetry_Int_Tables_number 62
_refine_ls_R_factor_all 0.09
loop_
_symmetry_equiv_pos_site_id
_symmetry_equiv_pos_as_xyz
1 'x+1/2, y, -z+1/2'
2 'x, -y+1/2, z'
3 '-x+1/2, y+1/2, z+1/2'
4 '-x, -y, -z'
5 '-x+1/2, -y, z+1/2'
6 '-x, y+1/2, -z'
7 'x+1/2, -y+1/2, -z+1/2'
8 'x, y, z'
loop_
_atom_type_symbol
_atom_type_oxidation_number
Cu2+ 2
As1- -1
S1- -1
loop_
_atom_site_label
_atom_site_type_symbol
_atom_site_symmetry_multiplicity
_atom_site_Wyckoff_symbol
_atom_site_fract_x
_atom_site_fract_y
_atom_site_fract_z
_atom_site_B_iso_or_equiv
_atom_site_occupancy
_atom_site_attached_hydrogens
Cu1 Cu2+ 4 c 0.1752(2) 0.25 0.0610(3) 2.1(3) 1. 0
As1 As1- 4 c 0.0146(1) 0.25 0.3520(2) 1.4(3) 1. 0
S1 S1- 4 c 0.1651(2) 0.75 0.8170(6) 1.0(4) 1. 0
#End of TTdata_34450-ICSD