
#(C) 2017 by FIZ Karlsruhe - Leibniz Institute for Information Infrastructure.  All rights reserved.
data_35410-ICSD
_database_code_ICSD 35410
_audit_creation_date 1983-12-31
_audit_update_record 2015-08-01
_chemical_name_systematic 'Niobium bromide - beta'
_chemical_formula_structural 'Nb Br5'
_chemical_formula_sum 'Br5 Nb1'
_exptl_crystal_density_diffrn 4.42
_publ_section_title

;
beta-Nb Br5, eine neue Modifikation von Niobpentabromid mit einer
eindimensionalen Lagenfehlordnung
;
loop_
_citation_id
_citation_journal_full
_citation_year
_citation_journal_volume
_citation_page_first
_citation_page_last
_citation_journal_id_ASTM
primary

;
Zeitschrift fuer Naturforschung, Teil B. Anorganische Chemie, Organische
Chemie (33,1978-41,1986)
; 1983 38 559 561 ZNBAD2
loop_
_publ_author_name
'Mueller, U.'
'Klingelhoefer, P.'
_cell_length_a 12.88
_cell_length_b 9.33
_cell_length_c 6.15
_cell_angle_alpha 90.
_cell_angle_beta 90.
_cell_angle_gamma 90.
_cell_volume 739.04
_cell_formula_units_Z 4
_symmetry_space_group_name_H-M 'P c m a'
_symmetry_Int_Tables_number 55
_refine_ls_R_factor_all 0.049
loop_
_symmetry_equiv_pos_site_id
_symmetry_equiv_pos_as_xyz
1 'x+1/2, y, -z+1/2'
2 '-x+1/2, y, z+1/2'
3 'x, -y, z'
4 '-x, -y, -z'
5 '-x+1/2, -y, z+1/2'
6 'x+1/2, -y, -z+1/2'
7 '-x, y, -z'
8 'x, y, z'
loop_
_atom_type_symbol
_atom_type_oxidation_number
Nb5+ 5
Br1- -1
loop_
_atom_site_label
_atom_site_type_symbol
_atom_site_symmetry_multiplicity
_atom_site_Wyckoff_symbol
_atom_site_fract_x
_atom_site_fract_y
_atom_site_fract_z
_atom_site_B_iso_or_equiv
_atom_site_occupancy
_atom_site_attached_hydrogens
Nb1 Nb5+ 4 e 0 0.2228(1) 0 . 1. 0
Br1 Br1- 4 g 0.0784(1) 0 0.2296(9) . 1. 0
Br2 Br1- 8 i -.1546(1) 0.1963(2) 0.2320(6) . 1. 0
Br3 Br1- 8 i 0.0841(1) 0.3857(1) 0.2462(7) . 1. 0
loop_
_atom_site_aniso_label
_atom_site_aniso_type_symbol
_atom_site_aniso_U_11
_atom_site_aniso_U_22
_atom_site_aniso_U_33
_atom_site_aniso_U_12
_atom_site_aniso_U_13
_atom_site_aniso_U_23
Nb1 Nb5+ 0.0204(7) 0.0204 0.0257(8) 0 0.0024(6) 0
Br1 Br1- 0.0231(7) 0.0257(7) 0.0255(19) 0 -.0044(13) 0
Br2 Br1- 0.0237(5) 0.0398(6) 0.0398(12) 0.0008(5) 0.0113(10) -.0035(12)
Br3 Br1- 0.0347(7) 0.0347(6) 0.0378(8) -.0073(5) 0.0009(25) -.0091(21)
#End of TTdata_35410-ICSD