
#(C) 2017 by FIZ Karlsruhe - Leibniz Institute for Information Infrastructure.  All rights reserved.
data_36017-ICSD
_database_code_ICSD 36017
_audit_creation_date 1982-12-31
_chemical_name_systematic 'Cesium telluride (2/5)'
_chemical_formula_structural 'Cs2 Te5'
_chemical_formula_sum 'Cs2 Te5'
_exptl_crystal_density_diffrn 5.14
_publ_section_title
'Darstellung und Kristallstruktur von Dicaesiumpentatellurid Cs2 Te5'
loop_
_citation_id
_citation_journal_full
_citation_year
_citation_journal_volume
_citation_page_first
_citation_page_last
_citation_journal_id_ASTM
primary 'Zeitschrift fuer Anorganische und Allgemeine Chemie (1950) (DE)' 1982
491 39 46 ZAACAB
loop_
_publ_author_name
'Boettcher, P.'
'Kretschmann, U.'
_cell_length_a 9.373(3)
_cell_length_b 12.288(2)
_cell_length_c 10.140(2)
_cell_angle_alpha 90.
_cell_angle_beta 90.
_cell_angle_gamma 90.
_cell_volume 1167.88
_cell_formula_units_Z 4
_symmetry_space_group_name_H-M 'C m c m'
_symmetry_Int_Tables_number 63
_refine_ls_R_factor_all 0.041
loop_
_symmetry_equiv_pos_site_id
_symmetry_equiv_pos_as_xyz
1 '-x, y, -z+1/2'
2 '-x, -y, z+1/2'
3 '-x, y, z'
4 '-x, -y, -z'
5 'x, -y, z+1/2'
6 'x, y, -z+1/2'
7 'x, -y, -z'
8 'x, y, z'
9 '-x+1/2, y+1/2, -z+1/2'
10 '-x+1/2, -y+1/2, z+1/2'
11 '-x+1/2, y+1/2, z'
12 '-x+1/2, -y+1/2, -z'
13 'x+1/2, -y+1/2, z+1/2'
14 'x+1/2, y+1/2, -z+1/2'
15 'x+1/2, -y+1/2, -z'
16 'x+1/2, y+1/2, z'
loop_
_atom_type_symbol
_atom_type_oxidation_number
Cs1+ 1
Te2- -2
Te0+ 0
loop_
_atom_site_label
_atom_site_type_symbol
_atom_site_symmetry_multiplicity
_atom_site_Wyckoff_symbol
_atom_site_fract_x
_atom_site_fract_y
_atom_site_fract_z
_atom_site_B_iso_or_equiv
_atom_site_occupancy
_atom_site_attached_hydrogens
Cs1 Cs1+ 4 c 0 0.5705(2) 0.25 . 1. 0
Cs2 Cs1+ 4 c 0 0.2112(2) 0.25 . 1. 0
Te1 Te2- 4 c 0 0.8894(2) 0.25 . 1. 0
Te2 Te0+ 16 h 0.2310(1) 0.1080(1) 0.5383(1) . 1. 0
loop_
_atom_site_aniso_label
_atom_site_aniso_type_symbol
_atom_site_aniso_U_11
_atom_site_aniso_U_22
_atom_site_aniso_U_33
_atom_site_aniso_U_12
_atom_site_aniso_U_13
_atom_site_aniso_U_23
Cs1 Cs1+ 0.0231(9) 0.0360(9) 0.0279(9) 0 0 0
Cs2 Cs1+ 0.0270(9) 0.0330(9) 0.0257(9) 0 0 0
Te1 Te2- 0.0231(8) 0.0194(8) 0.0248(8) 0 0 0
Te2 Te0+ 0.0204(4) 0.0299(4) 0.0224(3) 0.0003(6) 0.0002(4) -.0026(5)
#End of TTdata_36017-ICSD