
#(C) 2017 by FIZ Karlsruhe - Leibniz Institute for Information Infrastructure.  All rights reserved.
data_36123-ICSD
_database_code_ICSD 36123
_audit_creation_date 1980-01-01
_audit_update_record 2000-07-15
_chemical_name_systematic 'Strontium nickel oxide'
_chemical_formula_structural 'Sr Ni O2'
_chemical_formula_sum 'Ni1 O2 Sr1'
_chemical_name_structure_type SrCuO2
_exptl_crystal_density_diffrn 5.16
_publ_section_title
'Praeparation von Sr Ni O2-Einkristallen mit eben koordiniertem Nickel'
loop_
_citation_id
_citation_journal_full
_citation_year
_citation_journal_volume
_citation_page_first
_citation_page_last
_citation_journal_id_ASTM
primary 'Zeitschrift fuer Anorganische und Allgemeine Chemie (1950) (DE)' 1976
426 184 188 ZAACAB
loop_
_publ_author_name
'Pausch, H.'
'Mueller Buschbaum, H.'
_cell_length_a 3.581
_cell_length_b 16.362
_cell_length_c 3.915
_cell_angle_alpha 90.
_cell_angle_beta 90.
_cell_angle_gamma 90.
_cell_volume 229.39
_cell_formula_units_Z 4
_symmetry_space_group_name_H-M 'C m c m'
_symmetry_Int_Tables_number 63
_refine_ls_R_factor_all 0.103
loop_
_symmetry_equiv_pos_site_id
_symmetry_equiv_pos_as_xyz
1 '-x, y, -z+1/2'
2 '-x, -y, z+1/2'
3 '-x, y, z'
4 '-x, -y, -z'
5 'x, -y, z+1/2'
6 'x, y, -z+1/2'
7 'x, -y, -z'
8 'x, y, z'
9 '-x+1/2, y+1/2, -z+1/2'
10 '-x+1/2, -y+1/2, z+1/2'
11 '-x+1/2, y+1/2, z'
12 '-x+1/2, -y+1/2, -z'
13 'x+1/2, -y+1/2, z+1/2'
14 'x+1/2, y+1/2, -z+1/2'
15 'x+1/2, -y+1/2, -z'
16 'x+1/2, y+1/2, z'
loop_
_atom_type_symbol
_atom_type_oxidation_number
Sr2+ 2
Ni2+ 2
O2- -2
loop_
_atom_site_label
_atom_site_type_symbol
_atom_site_symmetry_multiplicity
_atom_site_Wyckoff_symbol
_atom_site_fract_x
_atom_site_fract_y
_atom_site_fract_z
_atom_site_B_iso_or_equiv
_atom_site_occupancy
_atom_site_attached_hydrogens
Sr1 Sr2+ 4 c 0 0.331 0.25 . 1. 0
Ni1 Ni2+ 4 c 0 0.061 0.25 . 1. 0
O1 O2- 4 c 0 0.945 0.25 . 1. 0
O2 O2- 4 c 0 0.181 0.25 . 1. 0
#End of TTdata_36123-ICSD