
data_36158-ICSD
_database_code_ICSD 36158
_audit_creation_date 1980-01-01
_chemical_name_systematic 'Mercury bromide'
_chemical_formula_structural 'Hg Br2'
_chemical_formula_sum 'Br2 Hg1'
_chemical_name_structure_type HgI2(oS12)
_exptl_crystal_density_diffrn 6.01
_cell_length_a 4.67
_cell_length_b 6.85
_cell_length_c 12.45
_cell_angle_alpha 90.
_cell_angle_beta 90.
_cell_angle_gamma 90.
_cell_volume 398.27
_cell_formula_units_Z 4
_symmetry_space_group_name_H-M 'C m c 21'
_symmetry_Int_Tables_number 36
loop_
_symmetry_equiv_pos_site_id
_symmetry_equiv_pos_as_xyz
1 'x, -y, z+1/2'
2 '-x, -y, z+1/2'
3 '-x, y, z'
4 'x, y, z'
5 'x+1/2, -y+1/2, z+1/2'
6 '-x+1/2, -y+1/2, z+1/2'
7 '-x+1/2, y+1/2, z'
8 'x+1/2, y+1/2, z'
loop_
_atom_type_symbol
_atom_type_oxidation_number
Hg2+ 2
Br1- -1
loop_
_atom_site_label
_atom_site_type_symbol
_atom_site_symmetry_multiplicity
_atom_site_Wyckoff_symbol
_atom_site_fract_x
_atom_site_fract_y
_atom_site_fract_z
_atom_site_B_iso_or_equiv
_atom_site_occupancy
_atom_site_attached_hydrogens
Hg1 Hg2+ 4 a 0 0.334(7) 0 . 1. 0
Br1 Br1- 4 a 0 0.056(14) 0.132(7) . 1. 0
Br2 Br1- 4 a 0 0.389(14) 0.368(7) . 1. 0
