
#(C) 2017 by FIZ Karlsruhe - Leibniz Institute for Information Infrastructure.  All rights reserved.
data_36170-ICSD
_database_code_ICSD 36170
_audit_creation_date 1980-01-01
_audit_update_record 2005-10-01
_chemical_name_systematic 'Lead bromide'
_chemical_formula_structural 'Pb Br2'
_chemical_formula_sum 'Br2 Pb1'
_chemical_name_structure_type Co2Si
_exptl_crystal_density_diffrn 6.76
_publ_section_title 'Die Kristallstruktur von Bleibromid Pb Br2'
loop_
_citation_id
_citation_journal_full
_citation_year
_citation_journal_volume
_citation_page_first
_citation_page_last
_citation_journal_id_ASTM
primary

;
Zeitschrift fuer Kristallographie, Kristallgeometrie, Kristallphysik,
Kristallchemie (-144,1977)
; 1932 84 49 61 ZEKGAX
loop_
_publ_author_name
'Nieuwenkamp, W.'
'Bijvoet, J.M.'
_cell_length_a 4.72
_cell_length_b 8.04
_cell_length_c 9.5
_cell_angle_alpha 90.
_cell_angle_beta 90.
_cell_angle_gamma 90.
_cell_volume 360.51
_cell_formula_units_Z 4
_symmetry_space_group_name_H-M 'P m n b'
_symmetry_Int_Tables_number 62
loop_
_symmetry_equiv_pos_site_id
_symmetry_equiv_pos_as_xyz
1 'x, y+1/2, -z+1/2'
2 '-x+1/2, y, z'
3 'x+1/2, -y+1/2, z+1/2'
4 '-x, -y, -z'
5 '-x, -y+1/2, z+1/2'
6 'x+1/2, -y, -z'
7 '-x+1/2, y+1/2, -z+1/2'
8 'x, y, z'
loop_
_atom_type_symbol
_atom_type_oxidation_number
Pb2+ 2
Br1- -1
loop_
_atom_site_label
_atom_site_type_symbol
_atom_site_symmetry_multiplicity
_atom_site_Wyckoff_symbol
_atom_site_fract_x
_atom_site_fract_y
_atom_site_fract_z
_atom_site_B_iso_or_equiv
_atom_site_occupancy
_atom_site_attached_hydrogens
Pb1 Pb2+ 4 c 0.25 0.265(5) 0.087(3) . 1. 0
Br1 Br1- 4 c 0.25 0.86(1) 0.075(1) . 1. 0
Br2 Br1- 4 c 0.25 0.48(1) -.17(1) . 1. 0
#End of TTdata_36170-ICSD