
data_36210-ICSD
_database_code_ICSD 36210
_audit_creation_date 1983-12-31
_audit_update_record 2002-04-01
_chemical_name_systematic 'Barium iodide'
_chemical_formula_structural 'Ba I2'
_chemical_formula_sum 'Ba1 I2'
_chemical_name_structure_type ZrNiAl-Fe2P
_exptl_crystal_density_diffrn 5.2
_cell_length_a 9.142(6)
_cell_length_b 9.142(6)
_cell_length_c 5.173(3)
_cell_angle_alpha 90.
_cell_angle_beta 90.
_cell_angle_gamma 120.
_cell_volume 374.42
_cell_formula_units_Z 3
_symmetry_space_group_name_H-M 'P -6 2 m'
_symmetry_Int_Tables_number 189
_refine_ls_R_factor_all 0.027
loop_
_symmetry_equiv_pos_site_id
_symmetry_equiv_pos_as_xyz
1 '-x, -x+y, -z'
2 'x-y, -y, -z'
3 'y, x, -z'
4 '-x, -x+y, z'
5 'x-y, -y, z'
6 'y, x, z'
7 '-x+y, -x, -z'
8 '-y, x-y, -z'
9 'x, y, -z'
10 '-x+y, -x, z'
11 '-y, x-y, z'
12 'x, y, z'
loop_
_atom_type_symbol
_atom_type_oxidation_number
Ba2+ 2
I1- -1
loop_
_atom_site_label
_atom_site_type_symbol
_atom_site_symmetry_multiplicity
_atom_site_Wyckoff_symbol
_atom_site_fract_x
_atom_site_fract_y
_atom_site_fract_z
_atom_site_B_iso_or_equiv
_atom_site_occupancy
_atom_site_attached_hydrogens
Ba1 Ba2+ 1 b 0 0 0.5 . 1. 0
Ba2 Ba2+ 2 c 0.3333 0.6667 0 . 1. 0
I1 I1- 3 f 0.2563(2) 0 0 . 1. 0
I2 I1- 3 g 0.5918(2) 0 0.5 . 1. 0
loop_
_atom_site_aniso_label
_atom_site_aniso_type_symbol
_atom_site_aniso_U_11
_atom_site_aniso_U_22
_atom_site_aniso_U_33
_atom_site_aniso_U_12
_atom_site_aniso_U_13
_atom_site_aniso_U_23
Ba1 Ba2+ 0.0263(7) 0.0263(7) 0.0153(10) 0.01315(7) 0 0
Ba2 Ba2+ 0.0211(5) 0.0211(5) 0.0353(9) 0.01055(5) 0 0
I1 I1- 0.0171(5) 0.0215(7) 0.0291(8) 0.0145(8) 0 0
I2 I1- 0.0242(6) 0.0390(9) 0.0287(8) 0.0195(9) 0 0
