
#(C) 2017 by FIZ Karlsruhe - Leibniz Institute for Information Infrastructure.  All rights reserved.
data_36296-ICSD
_database_code_ICSD 36296
_audit_creation_date 1980-01-01
_audit_update_record 2007-08-01
_chemical_name_systematic 'Dilead lead(IV) oxide'
_chemical_formula_structural 'Pb3 O4'
_chemical_formula_sum 'O4 Pb3'
_chemical_name_mineral Minium
_exptl_crystal_density_diffrn 9.02
_publ_section_title

;
The decomposition products of lead peroxide and oxidation products of lead
oxide
;
loop_
_citation_id
_citation_journal_full
_citation_year
_citation_journal_volume
_citation_page_first
_citation_page_last
_citation_journal_id_ASTM
primary 'Arkiv foer Kemi, Mineralogi och Geologi, A' 1945 20 1 31 ARKGAJ
loop_
_publ_author_name
'Bystroem, A.'
_cell_length_a 8.778(4)
_cell_length_b 8.778(4)
_cell_length_c 6.551(3)
_cell_angle_alpha 90.
_cell_angle_beta 90.
_cell_angle_gamma 90.
_cell_volume 504.78
_cell_formula_units_Z 4
_symmetry_space_group_name_H-M 'P -4 b 2'
_symmetry_Int_Tables_number 117
loop_
_symmetry_equiv_pos_site_id
_symmetry_equiv_pos_as_xyz
1 '-y+1/2, -x+1/2, -z'
2 'y, -x, -z'
3 'y+1/2, x+1/2, -z'
4 '-y, x, -z'
5 'x+1/2, -y+1/2, z'
6 '-x, -y, z'
7 '-x+1/2, y+1/2, z'
8 'x, y, z'
loop_
_atom_type_symbol
_atom_type_oxidation_number
Pb4+ 4
Pb2+ 2
O2- -2
loop_
_atom_site_label
_atom_site_type_symbol
_atom_site_symmetry_multiplicity
_atom_site_Wyckoff_symbol
_atom_site_fract_x
_atom_site_fract_y
_atom_site_fract_z
_atom_site_B_iso_or_equiv
_atom_site_occupancy
_atom_site_attached_hydrogens
Pb1 Pb4+ 2 c 0 0.5 0 . 1. 0
Pb2 Pb4+ 2 d 0 0.5 0.5 . 1. 0
Pb3 Pb2+ 8 i 0.14 0.165 0.25 . 1. 0
#End of TTdata_36296-ICSD