
#(C) 2017 by FIZ Karlsruhe - Leibniz Institute for Information Infrastructure.  All rights reserved.
data_36363-ICSD
_database_code_ICSD 36363
_audit_creation_date 1984-12-31
_audit_update_record 2012-08-01
_chemical_name_systematic 'Calcium aluminium antimony (3/1/3)'
_chemical_formula_structural 'Ca3 Al Sb3'
_chemical_formula_sum 'Al1 Ca3 Sb3'
_chemical_name_structure_type Ca3InP3
_exptl_crystal_density_diffrn 4.14
_publ_section_title
'Ca3 Al Sb3 und Ca5 Al2 Bi6 zwei neue Zintlphasen mit kettenfoermigen Anionen'
loop_
_citation_id
_citation_journal_full
_citation_year
_citation_journal_volume
_citation_page_first
_citation_page_last
_citation_journal_id_ASTM
primary

;
Zeitschrift fuer Naturforschung, Teil B. Anorganische Chemie, Organische
Chemie (33,1978-41,1986)
; 1984 39 727 732 ZNBAD2
loop_
_publ_author_name
'Cordier, D.'
'Schaefer, H.'
'Stelter, M.'
_cell_length_a 12.835(5)
_cell_length_b 4.489(2)
_cell_length_c 14.282(5)
_cell_angle_alpha 90.
_cell_angle_beta 90.
_cell_angle_gamma 90.
_cell_volume 822.88
_cell_formula_units_Z 4
_symmetry_space_group_name_H-M 'P n m a'
_symmetry_Int_Tables_number 62
_refine_ls_R_factor_all 0.044
loop_
_symmetry_equiv_pos_site_id
_symmetry_equiv_pos_as_xyz
1 'x+1/2, y, -z+1/2'
2 'x, -y+1/2, z'
3 '-x+1/2, y+1/2, z+1/2'
4 '-x, -y, -z'
5 '-x+1/2, -y, z+1/2'
6 '-x, y+1/2, -z'
7 'x+1/2, -y+1/2, -z+1/2'
8 'x, y, z'
loop_
_atom_type_symbol
_atom_type_oxidation_number
Sb3- -3
Ca2+ 2
Al3+ 3
loop_
_atom_site_label
_atom_site_type_symbol
_atom_site_symmetry_multiplicity
_atom_site_Wyckoff_symbol
_atom_site_fract_x
_atom_site_fract_y
_atom_site_fract_z
_atom_site_B_iso_or_equiv
_atom_site_occupancy
_atom_site_attached_hydrogens
Sb1 Sb3- 4 c 0.0393(1) 0.25 0.3509(1) . 1. 0
Sb2 Sb3- 4 c 0.1129(1) 0.25 0.8891(1) . 1. 0
Sb3 Sb3- 4 c 0.2555(1) 0.25 0.6199(1) . 1. 0
Ca1 Ca2+ 4 c 0.2711(2) 0.25 0.2806(2) 0.0146(5) 1. 0
Ca2 Ca2+ 4 c 0.8487(2) 0.25 0.5050(2) 0.0152(5) 1. 0
Ca3 Ca2+ 4 c 0.0598(2) 0.25 0.1104(2) 0.0142(4) 1. 0
Al1 Al3+ 4 c 0.0659(3) 0.25 0.7032(3) 0.0120(7) 1. 0
loop_
_atom_site_aniso_label
_atom_site_aniso_type_symbol
_atom_site_aniso_U_11
_atom_site_aniso_U_22
_atom_site_aniso_U_33
_atom_site_aniso_U_12
_atom_site_aniso_U_13
_atom_site_aniso_U_23
Sb1 Sb3- 0.0115(3) 0.0072(3) 0.0144(4) 0 -.0003(3) 0
Sb2 Sb3- 0.0138(3) 0.0079(3) 0.0108(3) 0 0.0008(3) 0
Sb3 Sb3- 0.0127(3) 0.0057(3) 0.0139(4) 0 0.0006(3) 0
#End of TTdata_36363-ICSD