
#(C) 2017 by FIZ Karlsruhe - Leibniz Institute for Information Infrastructure.  All rights reserved.
data_36424-ICSD
_database_code_ICSD 36424
_audit_creation_date 1980-01-01
_audit_update_record 2010-08-01
_chemical_name_systematic 'Scandium chloride (7/12)'
_chemical_formula_structural 'Sc7 Cl12'
_chemical_formula_sum 'Cl12 Sc7'
_chemical_name_structure_type Sc7Cl12
_exptl_crystal_density_diffrn 2.87
_publ_section_title

;
Metal-metal bonded clusters in transition metal groups 3 and 4. Synthesis and
structure of three M6 X12 type clusters for scandium and zirconium
;
loop_
_citation_id
_citation_journal_full
_citation_year
_citation_journal_volume
_citation_page_first
_citation_page_last
_citation_journal_id_ASTM
primary 'Journal of the American Chemical Society' 1978 100 652 655 JACSAT
loop_
_publ_author_name
'Corbett, J.D.'
'Daake, R.L.'
'Poeppelmeier, K.R.'
'Guthrie, D.H.'
_cell_length_a 12.959(2)
_cell_length_b 12.959(2)
_cell_length_c 8.825(2)
_cell_angle_alpha 90.
_cell_angle_beta 90.
_cell_angle_gamma 120.
_cell_volume 1283.48
_cell_formula_units_Z 3
_symmetry_space_group_name_H-M 'R -3 H'
_symmetry_Int_Tables_number 148
_refine_ls_R_factor_all 0.053
loop_
_symmetry_equiv_pos_site_id
_symmetry_equiv_pos_as_xyz
1 'x-y, x, -z'
2 'y, -x+y, -z'
3 '-x, -y, -z'
4 '-x+y, -x, z'
5 '-y, x-y, z'
6 'x, y, z'
7 'x-y+2/3, x+1/3, -z+1/3'
8 'y+2/3, -x+y+1/3, -z+1/3'
9 '-x+2/3, -y+1/3, -z+1/3'
10 '-x+y+2/3, -x+1/3, z+1/3'
11 '-y+2/3, x-y+1/3, z+1/3'
12 'x+2/3, y+1/3, z+1/3'
13 'x-y+1/3, x+2/3, -z+2/3'
14 'y+1/3, -x+y+2/3, -z+2/3'
15 '-x+1/3, -y+2/3, -z+2/3'
16 '-x+y+1/3, -x+2/3, z+2/3'
17 '-y+1/3, x-y+2/3, z+2/3'
18 'x+1/3, y+2/3, z+2/3'
loop_
_atom_type_symbol
_atom_type_oxidation_number
Sc0+ 0
Cl0+ 0
loop_
_atom_site_label
_atom_site_type_symbol
_atom_site_symmetry_multiplicity
_atom_site_Wyckoff_symbol
_atom_site_fract_x
_atom_site_fract_y
_atom_site_fract_z
_atom_site_B_iso_or_equiv
_atom_site_occupancy
_atom_site_attached_hydrogens
Sc1 Sc0+ 18 f 0.1725(1) 0.6232(1) 0.0191(1) . 1. 0
Sc2 Sc0+ 3 a 0 0 0 . 1. 0
Cl1 Cl0+ 18 f 0.0230(1) 0.4377(1) 0.1615(1) . 1. 0
Cl2 Cl0+ 18 f 0.1801(1) 0.0503(1) 0.1660(1) . 1. 0
loop_
_atom_site_aniso_label
_atom_site_aniso_type_symbol
_atom_site_aniso_B_11
_atom_site_aniso_B_22
_atom_site_aniso_B_33
_atom_site_aniso_B_12
_atom_site_aniso_B_13
_atom_site_aniso_B_23
Sc1 Sc0+ 0.6(1) 0.5(1) 0.9(1) 0.29(7) -.05(5) -.07(5)
Sc2 Sc0+ 0.9(2) 0.9(2) 6.3(5) 0.45(1) 0 0
Cl1 Cl0+ 0.7(2) 1.4(2) 1.9(2) 0.07(11) -.36(8) 0.1(1)
Cl2 Cl0+ 1.8(2) 1.8(2) 1.4(2) 0.8(1) 0.5(1) 0.3(1)
#End of TTdata_36424-ICSD