
#(C) 2017 by FIZ Karlsruhe - Leibniz Institute for Information Infrastructure.  All rights reserved.
data_36467-ICSD
_database_code_ICSD 36467
_audit_creation_date 1985-10-02
_audit_update_record 1988-07-26
_chemical_name_systematic
'Pentacalcium catena-mue-perantimonido-bis(diantimonidoindate(0))'
_chemical_formula_structural 'Ca5 In2 Sb6'
_chemical_formula_sum 'Ca5 In2 Sb6'
_chemical_name_structure_type Ca5Ga2As6
_exptl_crystal_density_diffrn 5.
_publ_section_title

;
Perantimonidogallate und -indate: Zur Kenntnis von Ca5 Ga2 Sb6, Ca5 In2 Sb6
und Sr5 In2 Sb6
;
loop_
_citation_id
_citation_journal_full
_citation_year
_citation_journal_volume
_citation_page_first
_citation_page_last
_citation_journal_id_ASTM
primary

;
Zeitschrift fuer Naturforschung, Teil B. Anorganische Chemie, Organische
Chemie (33,1978-41,1986)
; 1985 40 5 8 ZNBAD2
loop_
_publ_author_name
'Cordier, G.'
'Schaefer, H.'
'Stelter, M.'
_cell_length_a 14.256(4)
_cell_length_b 12.133(4)
_cell_length_c 4.457(2)
_cell_angle_alpha 90.
_cell_angle_beta 90.
_cell_angle_gamma 90.
_cell_volume 770.92
_cell_formula_units_Z 2
_symmetry_space_group_name_H-M 'P b a m'
_symmetry_Int_Tables_number 55
_refine_ls_R_factor_all 0.052
loop_
_symmetry_equiv_pos_site_id
_symmetry_equiv_pos_as_xyz
1 'x+1/2, -y+1/2, z'
2 '-x+1/2, y+1/2, z'
3 'x, y, -z'
4 '-x, -y, -z'
5 '-x+1/2, y+1/2, -z'
6 'x+1/2, -y+1/2, -z'
7 '-x, -y, z'
8 'x, y, z'
loop_
_atom_type_symbol
_atom_type_oxidation_number
Sb0+ 0
Ca0+ 0
In0+ 0
loop_
_atom_site_label
_atom_site_type_symbol
_atom_site_symmetry_multiplicity
_atom_site_Wyckoff_symbol
_atom_site_fract_x
_atom_site_fract_y
_atom_site_fract_z
_atom_site_B_iso_or_equiv
_atom_site_occupancy
_atom_site_attached_hydrogens
Sb1 Sb0+ 4 g 0.4067(1) 0.8489(1) 0 . 1. 0
Sb2 Sb0+ 4 h 0.1716(1) 0.6614(1) 0.5 . 1. 0
Sb3 Sb0+ 4 g 0.4044(1) 0.4640(1) 0 . 1. 0
Ca1 Ca0+ 4 h 0.4858(3) 0.6780(3) 0.5 . 1. 0
Ca2 Ca0+ 4 h 0.2480(2) 0.4087(3) 0.5 . 1. 0
Ca3 Ca0+ 2 d 0 0.5 0.5 . 1. 0
In1 In0+ 4 g 0.2862(1) 0.6640(1) 0 . 1. 0
loop_
_atom_site_aniso_label
_atom_site_aniso_type_symbol
_atom_site_aniso_U_11
_atom_site_aniso_U_22
_atom_site_aniso_U_33
_atom_site_aniso_U_12
_atom_site_aniso_U_13
_atom_site_aniso_U_23
Sb1 Sb0+ 0.0108(5) 0.0088(5) 0.0087(5) -.0019(4) 0 0
Sb2 Sb0+ 0.0074(4) 0.0064(4) 0.0112(5) -.0006(3) 0 0
Sb3 Sb0+ 0.0084(5) 0.0114(5) 0.0117(5) 0.0018(4) 0 0
Ca1 Ca0+ 0.0135(15) 0.0127(15) 0.0170(16) 0.0048(12) 0 0
Ca2 Ca0+ 0.0065(12) 0.0091(13) 0.0151(15) 0.0004(11) 0 0
Ca3 Ca0+ 0.0035(17) 0.0077(18) 0.0211(24) 0.0008(15) 0 0
In1 In0+ 0.0107(5) 0.0111(5) 0.0105(5) -.0020(4) 0 0
#End of TTdata_36467-ICSD