
#(C) 2017 by FIZ Karlsruhe - Leibniz Institute for Information Infrastructure.  All rights reserved.
data_36466-ICSD
_database_code_ICSD 36466
_audit_creation_date 1985-10-02
_audit_update_record 1988-07-26
_chemical_name_systematic
'Pentacalcium catena-mue-perantimonido-bis(diantimonidogallate(0))'
_chemical_formula_structural 'Ca5 Ga2 Sb6'
_chemical_formula_sum 'Ca5 Ga2 Sb6'
_chemical_name_structure_type Ca5Ga2As6
_exptl_crystal_density_diffrn 4.7
_publ_section_title

;
Perantimonidogallate und -indate: Zur Kenntnis von Ca5 Ga2 Sb6, Ca5 In2 Sb6
und Sr5 In2 Sb6
;
loop_
_citation_id
_citation_journal_full
_citation_year
_citation_journal_volume
_citation_page_first
_citation_page_last
_citation_journal_id_ASTM
primary

;
Zeitschrift fuer Naturforschung, Teil B. Anorganische Chemie, Organische
Chemie (33,1978-41,1986)
; 1985 40 5 8 ZNBAD2
loop_
_publ_author_name
'Cordier, G.'
'Schaefer, H.'
'Stelter, M.'
_cell_length_a 14.021(5)
_cell_length_b 12.106(4)
_cell_length_c 4.452(2)
_cell_angle_alpha 90.
_cell_angle_beta 90.
_cell_angle_gamma 90.
_cell_volume 755.67
_cell_formula_units_Z 2
_symmetry_space_group_name_H-M 'P b a m'
_symmetry_Int_Tables_number 55
_refine_ls_R_factor_all 0.087
loop_
_symmetry_equiv_pos_site_id
_symmetry_equiv_pos_as_xyz
1 'x+1/2, -y+1/2, z'
2 '-x+1/2, y+1/2, z'
3 'x, y, -z'
4 '-x, -y, -z'
5 '-x+1/2, y+1/2, -z'
6 'x+1/2, -y+1/2, -z'
7 '-x, -y, z'
8 'x, y, z'
loop_
_atom_type_symbol
_atom_type_oxidation_number
Sb0+ 0
Ca0+ 0
Ga0+ 0
loop_
_atom_site_label
_atom_site_type_symbol
_atom_site_symmetry_multiplicity
_atom_site_Wyckoff_symbol
_atom_site_fract_x
_atom_site_fract_y
_atom_site_fract_z
_atom_site_B_iso_or_equiv
_atom_site_occupancy
_atom_site_attached_hydrogens
Sb1 Sb0+ 4 g 0.4037(2) 0.8444(2) 0 . 1. 0
Sb2 Sb0+ 4 h 0.1786(1) 0.6610(2) 0.5 . 1. 0
Sb3 Sb0+ 4 g 0.4007(2) 0.4761(2) 0 . 1. 0
Ca1 Ca0+ 4 h 0.4848(5) 0.6746(6) 0.5 . 1. 0
Ca2 Ca0+ 4 h 0.2476(5) 0.4089(5) 0.5 . 1. 0
Ca3 Ca0+ 2 d 0 0.5 0.5 . 1. 0
Ga1 Ga0+ 4 g 0.2880(3) 0.6707(3) 0 . 1. 0
loop_
_atom_site_aniso_label
_atom_site_aniso_type_symbol
_atom_site_aniso_U_11
_atom_site_aniso_U_22
_atom_site_aniso_U_33
_atom_site_aniso_U_12
_atom_site_aniso_U_13
_atom_site_aniso_U_23
Sb1 Sb0+ 0.0090(11) 0.0088(11) 0.0080(11) -.0031(8) 0 0
Sb2 Sb0+ 0.0054(10) 0.0048(10) 0.0098(11) 0.0004(8) 0 0
Sb3 Sb0+ 0.0044(10) 0.0079(11) 0.0108 0.0008(8) 0 0
Ca1 Ca0+ 0.0124(35) 0.0133(34) 0.0173(37) 0.0080(29) 0 0
Ca2 Ca0+ 0.0067(30) 0.0052(30) 0.0165(35) 0.0003(25) 0 0
Ca3 Ca0+ 0.0019(39) 0.004(4) 0.0146(48) 0.0012(33) 0 0
Ga1 Ga0+ 0.0100(17) 0.0084(17) 0.0094(18) -.0026(14) 0 0
#End of TTdata_36466-ICSD