
#(C) 2017 by FIZ Karlsruhe - Leibniz Institute for Information Infrastructure.  All rights reserved.
data_370036-ICSD
_database_code_ICSD 370036
_audit_creation_date 2006-04-01
_chemical_name_systematic 'Calcium palladium aluminium (1/1/1)'
_chemical_formula_structural 'Ca Pd Al'
_chemical_formula_sum 'Al1 Ca1 Pd1'
_exptl_crystal_density_diffrn 4.58
_publ_section_title
'Crystal structure of calcium palladium aluminium (1/1/1), Ca Pd Al'
loop_
_citation_id
_citation_journal_full
_citation_year
_citation_journal_volume
_citation_page_first
_citation_page_last
_citation_journal_id_ASTM
primary 'Zeitschrift fuer Kristallographie (1979-2010)' 1993 205 135 136 ZEKRDZ
loop_
_publ_author_name
'Cordier, G.'
'Friedrich, T.'
_cell_length_a 5.75(1)
_cell_length_b 7.79(2)
_cell_length_c 5.62(1)
_cell_angle_alpha 90.
_cell_angle_beta 90.
_cell_angle_gamma 90.
_cell_volume 251.73
_cell_formula_units_Z 4
_symmetry_space_group_name_H-M 'P b c m'
_symmetry_Int_Tables_number 57
_refine_ls_R_factor_all 0.048
loop_
_symmetry_equiv_pos_site_id
_symmetry_equiv_pos_as_xyz
1 'x, -y+1/2, z+1/2'
2 '-x, y+1/2, z'
3 'x, y, -z+1/2'
4 '-x, -y, -z'
5 '-x, y+1/2, -z+1/2'
6 'x, -y+1/2, -z'
7 '-x, -y, z+1/2'
8 'x, y, z'
loop_
_atom_type_symbol
_atom_type_oxidation_number
Pd0+ 0
Ca0+ 0
Al0+ 0
loop_
_atom_site_label
_atom_site_type_symbol
_atom_site_symmetry_multiplicity
_atom_site_Wyckoff_symbol
_atom_site_fract_x
_atom_site_fract_y
_atom_site_fract_z
_atom_site_B_iso_or_equiv
_atom_site_occupancy
_atom_site_attached_hydrogens
Pd1 Pd0+ 4 d 0.1274(2) 0.9756(1) 0.25 . 1. 0
Ca1 Ca0+ 4 d 0.3637(1) 0.6006(3) 0.25 . 1. 0
Al1 Al0+ 4 c 0.1040(7) 0.25 0 . 1. 0
loop_
_atom_site_aniso_label
_atom_site_aniso_type_symbol
_atom_site_aniso_U_11
_atom_site_aniso_U_22
_atom_site_aniso_U_33
_atom_site_aniso_U_12
_atom_site_aniso_U_13
_atom_site_aniso_U_23
Pd1 Pd0+ 0.0084(4) 0.0078(4) 0.0082(4) 0.0005(3) 0. 0.
Ca1 Ca0+ 0.009(1) 0.011(1) 0.009(1) -0.0000(9) 0. 0.
Al1 Al0+ 0.009(2) 0.010(2) 0.007(2) 0. 0. 0.001(1)
#End of TTdata_370036-ICSD