
data_37204-ICSD
_database_code_ICSD 37204
_audit_creation_date 1983-12-31
_audit_update_record 2005-10-01
_chemical_name_systematic 'Tripotassium nitrate(III) - LT'
_chemical_formula_structural 'K3 (N O3)'
_chemical_formula_sum 'K3 N1 O3'
_exptl_crystal_density_diffrn 2.15
_cell_measurement_temperature 173.
_cell_length_a 7.269(1)
_cell_length_b 7.269(1)
_cell_length_c 10.463(2)
_cell_angle_alpha 90.
_cell_angle_beta 90.
_cell_angle_gamma 90.
_cell_volume 552.85
_cell_formula_units_Z 4
_symmetry_space_group_name_H-M 'I 4 c m'
_symmetry_Int_Tables_number 108
loop_
_symmetry_equiv_pos_site_id
_symmetry_equiv_pos_as_xyz
1 'y+1/2, x+1/2, z'
2 '-y+1/2, -x+1/2, z'
3 'y, -x, z'
4 '-y, x, z'
5 'x+1/2, -y+1/2, z'
6 '-x+1/2, y+1/2, z'
7 '-x, -y, z'
8 'x, y, z'
9 'y, x, z+1/2'
10 '-y, -x, z+1/2'
11 'y+1/2, -x+1/2, z+1/2'
12 '-y+1/2, x+1/2, z+1/2'
13 'x, -y, z+1/2'
14 '-x, y, z+1/2'
15 '-x+1/2, -y+1/2, z+1/2'
16 'x+1/2, y+1/2, z+1/2'
loop_
_atom_type_symbol
_atom_type_oxidation_number
K1+ 1
N3+ 3
O2- -2
loop_
_atom_site_label
_atom_site_type_symbol
_atom_site_symmetry_multiplicity
_atom_site_Wyckoff_symbol
_atom_site_fract_x
_atom_site_fract_y
_atom_site_fract_z
_atom_site_B_iso_or_equiv
_atom_site_occupancy
_atom_site_attached_hydrogens
K1 K1+ 4 a 0 0 0.25 . 1. 0
K2 K1+ 8 c 0.3 0.8 0 . 1. 0
N1 N3+ 4 b 0.5 0 0.294 . 1. 0
O1 O2- 4 a 0 0 0 . 1. 0
O2 O2- 8 c 0.1 0.6 0.231 . 1. 0
