
data_37325-ICSD
_database_code_ICSD 37325
_audit_creation_date 1985-01-31
_audit_update_record 2007-08-01
_chemical_name_systematic 'Potassium copper(I) oxide'
_chemical_formula_structural 'K Cu O'
_chemical_formula_sum 'Cu1 K1 O1'
_chemical_name_structure_type LiCuO(I4-2m)
_exptl_crystal_density_diffrn 3.31
_cell_length_a 9.350(1)
_cell_length_b 9.350(1)
_cell_length_c 5.440(1)
_cell_angle_alpha 90.
_cell_angle_beta 90.
_cell_angle_gamma 90.
_cell_volume 475.58
_cell_formula_units_Z 8
_symmetry_space_group_name_H-M 'I -4 m 2'
_symmetry_Int_Tables_number 119
_refine_ls_R_factor_all 0.0677
loop_
_symmetry_equiv_pos_site_id
_symmetry_equiv_pos_as_xyz
1 'y, x, -z'
2 '-y, -x, -z'
3 'y, -x, -z'
4 '-y, x, -z'
5 'x, -y, z'
6 '-x, y, z'
7 '-x, -y, z'
8 'x, y, z'
9 'y+1/2, x+1/2, -z+1/2'
10 '-y+1/2, -x+1/2, -z+1/2'
11 'y+1/2, -x+1/2, -z+1/2'
12 '-y+1/2, x+1/2, -z+1/2'
13 'x+1/2, -y+1/2, z+1/2'
14 '-x+1/2, y+1/2, z+1/2'
15 '-x+1/2, -y+1/2, z+1/2'
16 'x+1/2, y+1/2, z+1/2'
loop_
_atom_type_symbol
_atom_type_oxidation_number
K1+ 1
Cu1+ 1
O2- -2
loop_
_atom_site_label
_atom_site_type_symbol
_atom_site_symmetry_multiplicity
_atom_site_Wyckoff_symbol
_atom_site_fract_x
_atom_site_fract_y
_atom_site_fract_z
_atom_site_B_iso_or_equiv
_atom_site_occupancy
_atom_site_attached_hydrogens
K1 K1+ 8 i 0.1870(3) 0 0.7484(6) . 1. 0
Cu1 Cu1+ 8 h 0.3603(1) 0.8603(1) 0.25 . 1. 0
O1 O2- 8 i 0.7780(9) 0 0.2258(12) . 1. 0
loop_
_atom_site_aniso_label
_atom_site_aniso_type_symbol
_atom_site_aniso_U_11
_atom_site_aniso_U_22
_atom_site_aniso_U_33
_atom_site_aniso_U_12
_atom_site_aniso_U_13
_atom_site_aniso_U_23
K1 K1+ 0.0160(11) 0.0149(10) 0.0156(11) 0 0.0073(13) 0
Cu1 Cu1+ 0.0091(7) 0.0091(7) 0.0161(8) 0.0012(3) -.0036(6) 0.0036(6)
O1 O2- 0.0178(36) 0.0125(31) 0.0033(27) 0 -.0060(37) 0
