
data_37374-ICSD
_database_code_ICSD 37374
_audit_creation_date 2006-10-01
_audit_update_record 2007-08-01
_chemical_name_systematic 'Zinc sulfide'
_chemical_formula_structural 'Zn S'
_chemical_formula_sum 'S1 Zn1'
_exptl_crystal_density_diffrn 4.1
_cell_length_a 3.82
_cell_length_b 3.82
_cell_length_c 37.44
_cell_angle_alpha 90.
_cell_angle_beta 90.
_cell_angle_gamma 120.
_cell_volume 473.14
_cell_formula_units_Z 12
_symmetry_space_group_name_H-M 'R 3 m H'
_symmetry_Int_Tables_number 160
loop_
_symmetry_equiv_pos_site_id
_symmetry_equiv_pos_as_xyz
1 '-x+y, y, z'
2 'x, x-y, z'
3 '-y, -x, z'
4 '-x+y, -x, z'
5 '-y, x-y, z'
6 'x, y, z'
7 '-x+y+2/3, y+1/3, z+1/3'
8 'x+2/3, x-y+1/3, z+1/3'
9 '-y+2/3, -x+1/3, z+1/3'
10 '-x+y+2/3, -x+1/3, z+1/3'
11 '-y+2/3, x-y+1/3, z+1/3'
12 'x+2/3, y+1/3, z+1/3'
13 '-x+y+1/3, y+2/3, z+2/3'
14 'x+1/3, x-y+2/3, z+2/3'
15 '-y+1/3, -x+2/3, z+2/3'
16 '-x+y+1/3, -x+2/3, z+2/3'
17 '-y+1/3, x-y+2/3, z+2/3'
18 'x+1/3, y+2/3, z+2/3'
loop_
_atom_type_symbol
_atom_type_oxidation_number
Zn2+ 2
S2- -2
loop_
_atom_site_label
_atom_site_type_symbol
_atom_site_symmetry_multiplicity
_atom_site_Wyckoff_symbol
_atom_site_fract_x
_atom_site_fract_y
_atom_site_fract_z
_atom_site_B_iso_or_equiv
_atom_site_occupancy
_atom_site_attached_hydrogens
Zn1 Zn2+ 3 a 0 0 0 . 1. 0
Zn2 Zn2+ 3 a 0.3333 0.6667 0.08333 . 1. 0
Zn3 Zn2+ 3 a 0.6667 0.3333 0.16667 . 1. 0
Zn4 Zn2+ 3 a 0.3333 0.6667 0.25 . 1. 0
S1 S2- 3 a 0 0 0.0625 . 1. 0
S2 S2- 3 a 0.3333 0.6667 0.14583 . 1. 0
S3 S2- 3 a 0.66667 0.3333 0.22917 . 1. 0
S4 S2- 3 a 0.3333 0.6667 0.3126 . 1. 0
