
#(C) 2017 by FIZ Karlsruhe - Leibniz Institute for Information Infrastructure.  All rights reserved.
data_380471-ICSD
_database_code_ICSD 380471
_audit_creation_date 2011-02-01
_chemical_name_systematic 'Rubidium dicyanonickel chloride'
_chemical_formula_structural 'Rb Ni (C N)2 Cl'
_chemical_formula_sum 'C2 Cl1 N2 Ni1 Rb1'
_chemical_name_structure_type CsNi(CN)2Br
_exptl_crystal_density_diffrn 2.76
_cell_measurement_temperature 293.
_publ_section_title

;
Synthesis, characterization, and quantum-chemical studies of Ni (C N)2 M X (M
= Rb, Cs; X = Cl, Br)
;
loop_
_citation_id
_citation_journal_full
_citation_year
_citation_journal_volume
_citation_page_first
_citation_page_last
_citation_journal_id_ASTM
primary 'Inorganic Chemistry' 2010 49 7414 7423 INOCAJ
loop_
_publ_author_name
'Liu Xiao Hui'
'Speldrich, M.'
'Koegerler, P.'
'Dronskowski, R.'
'Tchougreeff, A.L.'
_cell_length_a 7.1209(10)
_cell_length_b 7.1209(10)
_cell_length_c 11.008(2)
_cell_angle_alpha 90
_cell_angle_beta 90
_cell_angle_gamma 90
_cell_volume 558.19
_cell_formula_units_Z 4
_symmetry_space_group_name_H-M 'I 4/m m m'
_symmetry_Int_Tables_number 139
_refine_ls_R_factor_all 0.0355
loop_
_symmetry_equiv_pos_site_id
_symmetry_equiv_pos_as_xyz
1 'y, x, -z'
2 '-y, -x, -z'
3 '-y, x, -z'
4 'y, -x, -z'
5 '-x, y, -z'
6 'x, -y, -z'
7 'x, y, -z'
8 '-x, -y, -z'
9 '-y, -x, z'
10 'y, x, z'
11 'y, -x, z'
12 '-y, x, z'
13 'x, -y, z'
14 '-x, y, z'
15 '-x, -y, z'
16 'x, y, z'
17 'y+1/2, x+1/2, -z+1/2'
18 '-y+1/2, -x+1/2, -z+1/2'
19 '-y+1/2, x+1/2, -z+1/2'
20 'y+1/2, -x+1/2, -z+1/2'
21 '-x+1/2, y+1/2, -z+1/2'
22 'x+1/2, -y+1/2, -z+1/2'
23 'x+1/2, y+1/2, -z+1/2'
24 '-x+1/2, -y+1/2, -z+1/2'
25 '-y+1/2, -x+1/2, z+1/2'
26 'y+1/2, x+1/2, z+1/2'
27 'y+1/2, -x+1/2, z+1/2'
28 '-y+1/2, x+1/2, z+1/2'
29 'x+1/2, -y+1/2, z+1/2'
30 '-x+1/2, y+1/2, z+1/2'
31 '-x+1/2, -y+1/2, z+1/2'
32 'x+1/2, y+1/2, z+1/2'
loop_
_atom_type_symbol
_atom_type_oxidation_number
Rb1+ 1
Ni2+ 2
Cl1- -1
N3- -3
C2+ 2
loop_
_atom_site_label
_atom_site_type_symbol
_atom_site_symmetry_multiplicity
_atom_site_Wyckoff_symbol
_atom_site_fract_x
_atom_site_fract_y
_atom_site_fract_z
_atom_site_B_iso_or_equiv
_atom_site_occupancy
_atom_site_attached_hydrogens
Rb1 Rb1+ 4 d 0. 0.5 0.25 0.0399(5) 1 0
Ni1 Ni2+ 2 a 0. 0. 0. 0.0233(5) 1 0
Ni2 Ni2+ 2 b 0. 0. 0.5 0.0193(5) 1 0
Cl1 Cl1- 4 e 0. 0. -0.7236(3) 0.0403(9) 1 0
N1 N3- 8 h 0.2018(7) 0.2018(7) 0.5 0.0309(16) 1 0
C1 C2+ 8 h 0.1842(8) 0.1842(8) 0. 0.0245(17) 1 0
loop_
_atom_site_aniso_label
_atom_site_aniso_type_symbol
_atom_site_aniso_U_11
_atom_site_aniso_U_22
_atom_site_aniso_U_33
_atom_site_aniso_U_12
_atom_site_aniso_U_13
_atom_site_aniso_U_23
Rb1 Rb1+ 0.0377(6) 0.0377(6) 0.0441(9) 0. 0. 0.
Ni1 Ni2+ 0.0145(7) 0.0145(7) 0.0407(12) 0. 0. 0.
Ni2 Ni2+ 0.0148(7) 0.0148(7) 0.0282(10) 0. 0. 0.
Cl1 Cl1- 0.0510(14) 0.0510(14) 0.0190(12) 0. 0. 0.
N1 N3- 0.0145(7) 0.0145(7) 0.0407(12) 0. 0. 0.
C1 C2+ 0.0510(14) 0.0510(14) 0.0190(12) 0. 0. 0.
#End of TTdata_380471-ICSD