
#(C) 2017 by FIZ Karlsruhe - Leibniz Institute for Information Infrastructure.  All rights reserved.
data_38223-ICSD
_database_code_ICSD 38223
_audit_creation_date 1980-01-01
_audit_update_record 1987-04-16
_chemical_name_systematic 'Rubidium trioxotellurate(IV)'
_chemical_formula_structural 'Rb2 Te O3'
_chemical_formula_sum 'O3 Rb2 Te1'
_chemical_name_structure_type Na2CO3(HT)
_exptl_crystal_density_diffrn 4.22
_publ_section_title 'Ueber die Tellurite der Alkalimetalle vom Typ M2 Te O3'
loop_
_citation_id
_citation_journal_full
_citation_year
_citation_journal_volume
_citation_page_first
_citation_page_last
_citation_journal_id_ASTM
primary

;
Zeitschrift fuer Naturforschung, Teil B. Anorganische Chemie, Organische
Chemie (2,1947-32,1977)
; 1974 29 28 31 ZENBAX
loop_
_publ_author_name
'Thuemmel, H.J.'
'Hoppe, R.'
_cell_length_a 11.24
_cell_length_b 6.48
_cell_length_c 7.49
_cell_angle_alpha 90.
_cell_angle_beta 90.
_cell_angle_gamma 90.
_cell_volume 545.54
_cell_formula_units_Z 4
_symmetry_space_group_name_H-M 'C 1 2/m 1'
_symmetry_Int_Tables_number 12
loop_
_symmetry_equiv_pos_site_id
_symmetry_equiv_pos_as_xyz
1 '-x, y, -z'
2 '-x, -y, -z'
3 'x, -y, z'
4 'x, y, z'
5 '-x+1/2, y+1/2, -z'
6 '-x+1/2, -y+1/2, -z'
7 'x+1/2, -y+1/2, z'
8 'x+1/2, y+1/2, z'
loop_
_atom_type_symbol
_atom_type_oxidation_number
Rb1+ 1
Te4+ 4
O2- -2
loop_
_atom_site_label
_atom_site_type_symbol
_atom_site_symmetry_multiplicity
_atom_site_Wyckoff_symbol
_atom_site_fract_x
_atom_site_fract_y
_atom_site_fract_z
_atom_site_B_iso_or_equiv
_atom_site_occupancy
_atom_site_attached_hydrogens
Rb1 Rb1+ 4 i 0.666 0 0.125 . 1. 0
Rb2 Rb1+ 2 a 0 0 0 . 1. 0
Rb3 Rb1+ 2 c 0 0 0.5 . 1. 0
Te1 Te4+ 4 i 0.34 0 0.352 . 1. 0
O1 O2- 4 i 0.766 0 0.454 . 1. 0
O2 O2- 8 j 0.905 0.285 0.219 . 1. 0
#End of TTdata_38223-ICSD