
#(C) 2017 by FIZ Karlsruhe - Leibniz Institute for Information Infrastructure.  All rights reserved.
data_38347-ICSD
_database_code_ICSD 38347
_audit_creation_date 1984-12-31
_audit_update_record 2007-04-01
_chemical_name_systematic 'Dipotassium hexabromotellurate(IV) - beta'
_chemical_formula_structural 'K2 (Te Br6)'
_chemical_formula_sum 'Br6 K2 Te1'
_exptl_crystal_density_diffrn 3.66
_cell_measurement_temperature 423.
_publ_section_title

;
Polymorphism and phase transitions of K2 Te Br6: a single crystal
investigation of the high temperature phases (383 - 463 K)
;
loop_
_citation_id
_citation_journal_full
_citation_year
_citation_journal_volume
_citation_page_first
_citation_page_last
_citation_journal_id_ASTM
primary 'Materials Research Bulletin' 1984 19 313 318 MRBUAC
loop_
_publ_author_name
'Abriel, W.'
_cell_length_a 7.580(2)
_cell_length_b 7.58
_cell_length_c 10.812(4)
_cell_angle_alpha 90.
_cell_angle_beta 90.
_cell_angle_gamma 90.
_cell_volume 621.22
_cell_formula_units_Z 2
_symmetry_space_group_name_H-M 'P 4/m n c'
_symmetry_Int_Tables_number 128
_refine_ls_R_factor_all 0.071
loop_
_symmetry_equiv_pos_site_id
_symmetry_equiv_pos_as_xyz
1 'y+1/2, x+1/2, -z+1/2'
2 '-y+1/2, -x+1/2, -z+1/2'
3 '-y, x, -z'
4 'y, -x, -z'
5 'x+1/2, -y+1/2, -z+1/2'
6 '-x+1/2, y+1/2, -z+1/2'
7 'x, y, -z'
8 '-x, -y, -z'
9 '-y+1/2, -x+1/2, z+1/2'
10 'y+1/2, x+1/2, z+1/2'
11 'y, -x, z'
12 '-y, x, z'
13 '-x+1/2, y+1/2, z+1/2'
14 'x+1/2, -y+1/2, z+1/2'
15 '-x, -y, z'
16 'x, y, z'
loop_
_atom_type_symbol
_atom_type_oxidation_number
Te4+ 4
Br1- -1
K1+ 1
loop_
_atom_site_label
_atom_site_type_symbol
_atom_site_symmetry_multiplicity
_atom_site_Wyckoff_symbol
_atom_site_fract_x
_atom_site_fract_y
_atom_site_fract_z
_atom_site_B_iso_or_equiv
_atom_site_occupancy
_atom_site_attached_hydrogens
Te1 Te4+ 2 a 0 0 0 . 1. 0
Br1 Br1- 4 e 0 0 0.2474(4) . 1. 0
Br2 Br1- 8 h 0.2173(6) 0.2801(6) 0 . 1. 0
loop_
_atom_site_aniso_label
_atom_site_aniso_type_symbol
_atom_site_aniso_U_11
_atom_site_aniso_U_22
_atom_site_aniso_U_33
_atom_site_aniso_U_12
_atom_site_aniso_U_13
_atom_site_aniso_U_23
Te1 Te4+ 0.0333(14) 0.0333 0.0357(20) 0 0 0
Br1 Br1- 0.1587(43) 0.1587 0.0384(29) 0 0 0
Br2 Br1- 0.071(3) 0.0624(29) 0.1548(37) -.0257(26) 0 0
K1 K1+ 0.1297(85) 0.1297 0.0922(96) 0.037(12) 0 0
#End of TTdata_38347-ICSD