
#(C) 2017 by FIZ Karlsruhe - Leibniz Institute for Information Infrastructure.  All rights reserved.
data_38416-ICSD
_database_code_ICSD 38416
_audit_creation_date 1983-12-31
_audit_update_record 2006-04-01
_chemical_name_systematic 'Dilithium tellurate'
_chemical_formula_structural 'Li2 (Te O3)'
_chemical_formula_sum 'Li2 O3 Te1'
_exptl_crystal_density_diffrn 1.91
_publ_section_title
'OD interpretation of the crystal structure of lithium tellurite, Li2 Te O3'
loop_
_citation_id
_citation_journal_full
_citation_year
_citation_journal_volume
_citation_page_first
_citation_page_last
_citation_journal_id_ASTM
primary 'Crystal Research and Technology' 1983 18 85 90 CRTEDF
loop_
_publ_author_name
'Kuban, R.J.'
_cell_length_a 5.06
_cell_length_b 9.56
_cell_length_c 13.72
_cell_angle_alpha 90.
_cell_angle_beta 95.5
_cell_angle_gamma 90.
_cell_volume 660.63
_cell_formula_units_Z 4
_symmetry_space_group_name_H-M 'C 1 2/m 1'
_symmetry_Int_Tables_number 12
loop_
_symmetry_equiv_pos_site_id
_symmetry_equiv_pos_as_xyz
1 '-x, y, -z'
2 '-x, -y, -z'
3 'x, -y, z'
4 'x, y, z'
5 '-x+1/2, y+1/2, -z'
6 '-x+1/2, -y+1/2, -z'
7 'x+1/2, -y+1/2, z'
8 'x+1/2, y+1/2, z'
loop_
_atom_type_symbol
_atom_type_oxidation_number
Te4+ 4
Li1+ 1
O2- -2
loop_
_atom_site_label
_atom_site_type_symbol
_atom_site_symmetry_multiplicity
_atom_site_Wyckoff_symbol
_atom_site_fract_x
_atom_site_fract_y
_atom_site_fract_z
_atom_site_B_iso_or_equiv
_atom_site_occupancy
_atom_site_attached_hydrogens
Te1 Te4+ 4 i 0.2604 0 -.1604 . 1. 0
Li1 Li1+ 8 j 0.7984 0.1603 -.0651 . 1. 0
O1 O2- 4 i 0.6414 0 -.136 . 1. 0
O2 O2- 8 j 0.1836 0.1498 -.0815 . 1. 0
#End of TTdata_38416-ICSD