
data_391265-ICSD
_database_code_ICSD 391265
_audit_creation_date 2006-10-01
_chemical_name_systematic 'Strontium octanitrido hexasilicate'
_chemical_formula_structural 'Sr N8 Si6'
_chemical_formula_sum 'N8 Si6 Sr1'
_exptl_crystal_density_diffrn 3.5
_cell_length_a 7.855(2)
_cell_length_b 9.260(2)
_cell_length_c 4.801(1)
_cell_angle_alpha 90.
_cell_angle_beta 90.
_cell_angle_gamma 90.
_cell_volume 349.21
_cell_formula_units_Z 2
_symmetry_space_group_name_H-M 'I m m 2'
_symmetry_Int_Tables_number 44
_refine_ls_R_factor_all 0.0239
loop_
_symmetry_equiv_pos_site_id
_symmetry_equiv_pos_as_xyz
1 'x, -y, z'
2 '-x, y, z'
3 '-x, -y, z'
4 'x, y, z'
5 'x+1/2, -y+1/2, z+1/2'
6 '-x+1/2, y+1/2, z+1/2'
7 '-x+1/2, -y+1/2, z+1/2'
8 'x+1/2, y+1/2, z+1/2'
loop_
_atom_type_symbol
_atom_type_oxidation_number
Sr2+ 2
Si3+ 3.67
N3- -3
loop_
_atom_site_label
_atom_site_type_symbol
_atom_site_symmetry_multiplicity
_atom_site_Wyckoff_symbol
_atom_site_fract_x
_atom_site_fract_y
_atom_site_fract_z
_atom_site_B_iso_or_equiv
_atom_site_occupancy
_atom_site_attached_hydrogens
Sr1 Sr2+ 2 b 0. 0.5 0.15920(9) 0.01078(13) 1 0
Si1 Si3+ 4 d -0.5 0.62700(9) 0.1397(3) 0.00323(16) 1 0
Si2 Si3+ 8 e 0.20347(6) 0.16042(6) 0.1481(3) 0.00337(12) 1 0
N1 N3- 4 c 0.2087(4) 0.5 -0.2856(5) 0.0066(6) 1 0
N2 N3- 4 d 0. 0.8161(3) -0.7055(6) 0.0049(5) 1 0
N3 N3- 8 e -0.3181(3) 0.6971(2) 0.2940(4) 0.0050(3) 1 0
loop_
_atom_site_aniso_label
_atom_site_aniso_type_symbol
_atom_site_aniso_U_11
_atom_site_aniso_U_22
_atom_site_aniso_U_33
_atom_site_aniso_U_12
_atom_site_aniso_U_13
_atom_site_aniso_U_23
Sr1 Sr2+ 0.01080(18) 0.0097(2) 0.01187(19) 0. 0. 0.
Si1 Si3+ 0.0034(3) 0.0033(3) 0.0030(3) 0. 0. 0.0000(4)
Si2 Si3+ 0.0036(2) 0.0030(2) 0.0035(2) -0.00046(15) -0.0001(3) -0.0005(3)
N1 N3- 0.0056(12) 0.0049(14) 0.0095(13) 0. 0.0027(7) 0.
N2 N3- 0.0053(11) 0.0052(13) 0.0043(10) 0. 0. -0.0010(8)
N3 N3- 0.0056(7) 0.0057(9) 0.0037(7) -0.0025(6) -0.0004(6) 0.0009(6)
