
#(C) 2017 by FIZ Karlsruhe - Leibniz Institute for Information Infrastructure.  All rights reserved.
data_391466-ICSD
_database_code_ICSD 391466
_audit_creation_date 2010-02-01
_chemical_name_systematic 'Yttrium palladium germanide (1/1/1)'
_chemical_formula_structural 'Y Pd Ge'
_chemical_formula_sum 'Ge1 Pd1 Y1'
_chemical_name_structure_type HoPdGe
_exptl_crystal_density_diffrn 7.71
_cell_measurement_temperature 293.
_publ_section_title
'Polymorphism in the germanides RE Pd Ge with the heavy rare earth elements'
loop_
_citation_id
_citation_journal_full
_citation_year
_citation_journal_volume
_citation_page_first
_citation_page_last
_citation_journal_id_ASTM
primary 'Zeitschrift fuer Naturforschung, B: Chemical Sciences' 2009 64 595 602
ZNBSEN
loop_
_publ_author_name
'Rodewald, U.C.'
'Heying, B.'
'Hoffmann, R.D.'
'Niepmann, D.'
'Poettgen, R.'
_cell_length_a 4.3712(2)
_cell_length_b 20.927(4)
_cell_length_c 7.565(2)
_cell_angle_alpha 90.
_cell_angle_beta 90.
_cell_angle_gamma 90.
_cell_volume 692.02
_cell_formula_units_Z 12
_symmetry_space_group_name_H-M 'I m m 2'
_symmetry_Int_Tables_number 44
_refine_ls_R_factor_all 0.0216
loop_
_symmetry_equiv_pos_site_id
_symmetry_equiv_pos_as_xyz
1 'x, -y, z'
2 '-x, y, z'
3 '-x, -y, z'
4 'x, y, z'
5 'x+1/2, -y+1/2, z+1/2'
6 '-x+1/2, y+1/2, z+1/2'
7 '-x+1/2, -y+1/2, z+1/2'
8 'x+1/2, y+1/2, z+1/2'
loop_
_atom_type_symbol
_atom_type_oxidation_number
Y0+ 0
Pd0+ 0
Ge0+ 0
loop_
_atom_site_label
_atom_site_type_symbol
_atom_site_symmetry_multiplicity
_atom_site_Wyckoff_symbol
_atom_site_fract_x
_atom_site_fract_y
_atom_site_fract_z
_atom_site_B_iso_or_equiv
_atom_site_occupancy
_atom_site_attached_hydrogens
Y1 Y0+ 2 a 0. 0. 0.5293(9) 0.0069(12) 1 0
Y2 Y0+ 4 d 0. 0.3335(2) 0.5330(6) 0.0091(9) 1 0
Y3 Y0+ 2 b 0. 0.5 0.4498(9) 0.0059(12) 1 0
Y4 Y0+ 4 d 0. 0.1671(2) 0.4545(6) 0.0072(9) 1 0
Pd1 Pd0+ 4 d 0. 0.10439(17) 0.8290(5) 0.0072(7) 1 0
Pd2 Pd0+ 4 d 0. 0.26709(19) 0.1667(5) 0.0105(7) 1 0
Pd3 Pd0+ 4 d 0. 0.42818(17) 0.8221(5) 0.0083(7) 1 0
Ge1 Ge0+ 4 d 0. 0.0663(2) 0.1589(7) 0.0060(9) 1 0
Ge2 Ge0+ 4 d 0. 0.2338(2) 0.8404(9) 0.0087(10) 1 0
Ge3 Ge0+ 4 d 0. 0.4057(2) 0.1552(7) 0.0056(10) 1 0
loop_
_atom_site_aniso_label
_atom_site_aniso_type_symbol
_atom_site_aniso_U_11
_atom_site_aniso_U_22
_atom_site_aniso_U_33
_atom_site_aniso_U_12
_atom_site_aniso_U_13
_atom_site_aniso_U_23
Y1 Y0+ 0.006(3) 0.005(2) 0.010(3) 0. 0. 0.
Y2 Y0+ 0.009(2) 0.009(2) 0.009(2) 0. 0. 0.0001(15)
Y3 Y0+ 0.007(3) 0.001(2) 0.009(3) 0. 0. 0.
Y4 Y0+ 0.007(2) 0.0070(19) 0.007(2) 0. 0. 0.0016(14)
Pd1 Pd0+ 0.0040(11) 0.0091(11) 0.0086(17) 0. 0. -0.0039(13)
Pd2 Pd0+ 0.0144(14) 0.0120(14) 0.0050(17) 0. 0. -0.0002(14)
Pd3 Pd0+ 0.0024(12) 0.0123(14) 0.0103(19) 0. 0. -0.0042(14)
Ge1 Ge0+ 0.0044(19) 0.007(2) 0.006(2) 0. 0. 0.0015(16)
Ge2 Ge0+ 0.0091(17) 0.014(2) 0.003(2) 0. 0. 0.001(2)
Ge3 Ge0+ 0.0042(19) 0.0037(15) 0.009(3) 0. 0. 0.0021(16)
#End of TTdata_391466-ICSD