
#(C) 2017 by FIZ Karlsruhe - Leibniz Institute for Information Infrastructure.  All rights reserved.
data_391422-ICSD
_database_code_ICSD 391422
_audit_creation_date 2008-08-01
_chemical_name_systematic 'Strontium gold indide (1/1/1)'
_chemical_formula_structural 'Sr Au In'
_chemical_formula_sum 'Au1 In1 Sr1'
_chemical_name_structure_type TiNiSi-MgSrSi
_exptl_crystal_density_diffrn 8.51
_cell_measurement_temperature 293.
_publ_section_title 'Synthesis and Structures of Sr Au In and Sr Au In3'
loop_
_citation_id
_citation_journal_full
_citation_year
_citation_journal_volume
_citation_page_first
_citation_page_last
_citation_journal_id_ASTM
primary 'Zeitschrift fuer Anorganische und Allgemeine Chemie (1950) (DE)' 2007
633 2591 2594 ZAACAB
loop_
_publ_author_name
'Muts, I.R.'
'Poettgen, R.'
'Zaremba, V.I.'
_cell_length_a 7.722(4)
_cell_length_b 4.786(2)
_cell_length_c 8.440(4)
_cell_angle_alpha 90.
_cell_angle_beta 90.
_cell_angle_gamma 90.
_cell_volume 311.92
_cell_formula_units_Z 4
_symmetry_space_group_name_H-M 'P n m a'
_symmetry_Int_Tables_number 62
_refine_ls_R_factor_all 0.0364
loop_
_symmetry_equiv_pos_site_id
_symmetry_equiv_pos_as_xyz
1 'x+1/2, y, -z+1/2'
2 'x, -y+1/2, z'
3 '-x+1/2, y+1/2, z+1/2'
4 '-x, -y, -z'
5 '-x+1/2, -y, z+1/2'
6 '-x, y+1/2, -z'
7 'x+1/2, -y+1/2, -z+1/2'
8 'x, y, z'
loop_
_atom_type_symbol
_atom_type_oxidation_number
Sr0+ 0
Au0+ 0
In0+ 0
loop_
_atom_site_label
_atom_site_type_symbol
_atom_site_symmetry_multiplicity
_atom_site_Wyckoff_symbol
_atom_site_fract_x
_atom_site_fract_y
_atom_site_fract_z
_atom_site_B_iso_or_equiv
_atom_site_occupancy
_atom_site_attached_hydrogens
Sr1 Sr0+ 4 c 0.02148(10) 0.25 0.68501(8) 0.01165(14) 1 0
Au1 Au0+ 4 c 0.28417(4) 0.25 0.38677(3) 0.01265(9) 1 0
In1 In0+ 4 c 0.15759(8) 0.25 0.06753(6) 0.01143(11) 1 0
loop_
_atom_site_aniso_label
_atom_site_aniso_type_symbol
_atom_site_aniso_U_11
_atom_site_aniso_U_22
_atom_site_aniso_U_33
_atom_site_aniso_U_12
_atom_site_aniso_U_13
_atom_site_aniso_U_23
Sr1 Sr0+ 0.0116(3) 0.0111(3) 0.0123(3) 0. -0.0015(2) 0.
Au1 Au0+ 0.01333(14) 0.01053(13) 0.01408(14) 0. 0.00137(11) 0.
In1 In0+ 0.0134(2) 0.0106(2) 0.0103(2) 0. 0.00120(17) 0.
#End of TTdata_391422-ICSD