
#(C) 2017 by FIZ Karlsruhe - Leibniz Institute for Information Infrastructure.  All rights reserved.
data_39257-ICSD
_database_code_ICSD 39257
_audit_creation_date 1990-12-27
_audit_update_record 2008-02-01
_chemical_name_systematic 'Bismuth iodide (9/2)'
_chemical_formula_structural 'Bi9 I2'
_chemical_formula_sum 'Bi9 I2'
_exptl_crystal_density_diffrn 8.81
_publ_section_title 'Crystal structure of Bi9 I2'
loop_
_citation_id
_citation_journal_full
_citation_year
_citation_journal_volume
_citation_page_first
_citation_page_last
_citation_journal_id_ASTM
primary 'Doklady Akademii Nauk SSSR' 1990 310 117 120 DANKAS
loop_
_publ_author_name
'Dikarev, E.V.'
'Popovkin, B.A.'
_cell_length_a 13.353(3)
_cell_length_b 15.184(3)
_cell_length_c 4.383(1)
_cell_angle_alpha 90.
_cell_angle_beta 90.
_cell_angle_gamma 115.06(3)
_cell_volume 805.01
_cell_formula_units_Z 2
_symmetry_space_group_name_H-M 'P 1 1 21/m'
_symmetry_Int_Tables_number 11
_refine_ls_R_factor_all 0.052
loop_
_symmetry_equiv_pos_site_id
_symmetry_equiv_pos_as_xyz
1 'x, y, -z+1/2'
2 '-x, -y, -z'
3 '-x, -y, z+1/2'
4 'x, y, z'
loop_
_atom_type_symbol
_atom_type_oxidation_number
Bi0+ 0.222
I1- -1
loop_
_atom_site_label
_atom_site_type_symbol
_atom_site_symmetry_multiplicity
_atom_site_Wyckoff_symbol
_atom_site_fract_x
_atom_site_fract_y
_atom_site_fract_z
_atom_site_B_iso_or_equiv
_atom_site_occupancy
_atom_site_attached_hydrogens
Bi1 Bi0+ 2 e 0.8180(3) 0.4279(3) 0.25 0.69(8) 1. 0
Bi2 Bi0+ 2 e 0.3033(4) 0.7225(3) 0.25 1.05(8) 1. 0
Bi3 Bi0+ 2 e 0.4971(4) 0.6659(3) 0.25 1.13(8) 1. 0
Bi4 Bi0+ 2 e 0.3850(3) 0.1884(3) 0.25 0.90(8) 1. 0
Bi5 Bi0+ 2 e 0.1951(4) 0.2510(3) 0.25 1.03(8) 1. 0
Bi6 Bi0+ 2 e 0.9273(3) 0.8943(3) 0.25 0.57(8) 1. 0
Bi7 Bi0+ 2 e 0.1237(3) 0.8379(3) 0.25 0.72(8) 1. 0
Bi8 Bi0+ 2 e 0.7595(4) 0.0189(3) 0.25 1.30(8) 1. 0
Bi9 Bi0+ 2 e 0.5631(4) 0.0735(4) 0.25 0.98(7) 1. 0
I1 I1- 2 e 0.0167(6) 0.3719(6) 0.25 1.43(14) 1. 0
I2 I1- 2 e 0.6614(7) 0.5369(6) 0.25 1.50(15) 1. 0
#End of TTdata_39257-ICSD