
#(C) 2017 by FIZ Karlsruhe - Leibniz Institute for Information Infrastructure.  All rights reserved.
data_39428-ICSD
_database_code_ICSD 39428
_audit_creation_date 1992-01-20
_audit_update_record 2010-02-01
_chemical_name_systematic 'Titanium(III) chloride - III'
_chemical_formula_structural 'Ti Cl3'
_chemical_formula_sum 'Cl3 Ti1'
_chemical_name_structure_type FeCrCl6
_exptl_crystal_density_diffrn 2.68
_publ_section_title
'X-ray diffraction study of phase transition in alpha-Ti Cl3'
loop_
_citation_id
_citation_journal_full
_citation_year
_citation_journal_volume
_citation_page_first
_citation_page_last
_citation_journal_id_ASTM
primary 'Zhurnal Neorganicheskoi Khimii' 1991 36 1117 1122 ZNOKAQ
loop_
_publ_author_name
'Troyanov, S.I.'
'Snigireva, E.M.'
'Rybakov, V.B.'
_cell_length_a 6.143(1)
_cell_length_b 6.143(1)
_cell_length_c 11.718(3)
_cell_angle_alpha 90.
_cell_angle_beta 90.
_cell_angle_gamma 120.
_cell_volume 382.95
_cell_formula_units_Z 4
_symmetry_space_group_name_H-M 'P -3 1 c'
_symmetry_Int_Tables_number 163
_refine_ls_R_factor_all 0.08
loop_
_symmetry_equiv_pos_site_id
_symmetry_equiv_pos_as_xyz
1 '-x+y, y, -z+1/2'
2 'x, x-y, -z+1/2'
3 '-y, -x, -z+1/2'
4 'x-y, x, -z'
5 'y, -x+y, -z'
6 '-x, -y, -z'
7 'x-y, -y, z+1/2'
8 '-x, -x+y, z+1/2'
9 'y, x, z+1/2'
10 '-x+y, -x, z'
11 '-y, x-y, z'
12 'x, y, z'
loop_
_atom_type_symbol
_atom_type_oxidation_number
Ti3+ 3
Cl1- -1
loop_
_atom_site_label
_atom_site_type_symbol
_atom_site_symmetry_multiplicity
_atom_site_Wyckoff_symbol
_atom_site_fract_x
_atom_site_fract_y
_atom_site_fract_z
_atom_site_B_iso_or_equiv
_atom_site_occupancy
_atom_site_attached_hydrogens
Ti1 Ti3+ 2 c 0.6667 0.3333 0.75 1.30(5) 1. 0
Ti2 Ti3+ 2 a 0 0 0.75 1.15(4) 1. 0
Cl1 Cl1- 12 i 0.9919(8) 0.327(2) 0.6326(3) 1.94(5) 1. 0
#End of TTdata_39428-ICSD