
data_39452-ICSD
_database_code_ICSD 39452
_audit_creation_date 1992-01-20
_audit_update_record 2012-02-01
_chemical_name_systematic 'Nickel silicon phosphide (1/3/4)'
_chemical_formula_structural 'Ni Si3 P4'
_chemical_formula_sum 'Ni1 P4 Si3'
_chemical_name_structure_type Stannite-Cu2FeSnS4
_exptl_crystal_density_diffrn 3.22
_cell_length_a 5.1598(8)
_cell_length_b 5.1598(8)
_cell_length_c 10.350(1)
_cell_angle_alpha 90.
_cell_angle_beta 90.
_cell_angle_gamma 90.
_cell_volume 275.55
_cell_formula_units_Z 2
_symmetry_space_group_name_H-M 'I -4 2 m'
_symmetry_Int_Tables_number 121
_refine_ls_R_factor_all 0.029
loop_
_symmetry_equiv_pos_site_id
_symmetry_equiv_pos_as_xyz
1 '-y, -x, z'
2 'y, x, z'
3 'y, -x, -z'
4 '-y, x, -z'
5 'x, -y, -z'
6 '-x, y, -z'
7 '-x, -y, z'
8 'x, y, z'
9 '-y+1/2, -x+1/2, z+1/2'
10 'y+1/2, x+1/2, z+1/2'
11 'y+1/2, -x+1/2, -z+1/2'
12 '-y+1/2, x+1/2, -z+1/2'
13 'x+1/2, -y+1/2, -z+1/2'
14 '-x+1/2, y+1/2, -z+1/2'
15 '-x+1/2, -y+1/2, z+1/2'
16 'x+1/2, y+1/2, z+1/2'
loop_
_atom_type_symbol
_atom_type_oxidation_number
Ni0+ 0
Si0+ 0
P0+ 0
loop_
_atom_site_label
_atom_site_type_symbol
_atom_site_symmetry_multiplicity
_atom_site_Wyckoff_symbol
_atom_site_fract_x
_atom_site_fract_y
_atom_site_fract_z
_atom_site_B_iso_or_equiv
_atom_site_occupancy
_atom_site_attached_hydrogens
Ni1 Ni0+ 2 a 0 0 0 0.8(1) 1. 0
Si1 Si0+ 2 b 0.5 0.5 0 0.5(1) 1. 0
Si2 Si0+ 4 d 0 0.5 0.75 0.3(1) 1. 0
P1 P0+ 8 i 0.2428(7) 0.7572(7) 0.8814(5) 0.4(1) 1. 0
