
data_39504-ICSD
_database_code_ICSD 39504
_audit_creation_date 1992-08-20
_audit_update_record 2014-08-01
_chemical_name_systematic 'Disodium manganate(VI)'
_chemical_formula_structural 'Na2 (Mn O4)'
_chemical_formula_sum 'Mn1 Na2 O4'
_chemical_name_structure_type Na2MnO4
_exptl_crystal_density_diffrn 2.16
_cell_length_a 6.203(13)
_cell_length_b 6.203(12)
_cell_length_c 7.598(17)
_cell_angle_alpha 90.
_cell_angle_beta 90.
_cell_angle_gamma 120.
_cell_volume 253.18
_cell_formula_units_Z 2
_symmetry_space_group_name_H-M 'P 63 m c'
_symmetry_Int_Tables_number 186
_refine_ls_R_factor_all 0.16
loop_
_symmetry_equiv_pos_site_id
_symmetry_equiv_pos_as_xyz
1 '-x, -x+y, z+1/2'
2 'x-y, -y, z+1/2'
3 'y, x, z+1/2'
4 'x-y, x, z+1/2'
5 'y, -x+y, z+1/2'
6 '-x, -y, z+1/2'
7 'x, x-y, z'
8 '-x+y, y, z'
9 '-y, -x, z'
10 '-x+y, -x, z'
11 '-y, x-y, z'
12 'x, y, z'
loop_
_atom_type_symbol
_atom_type_oxidation_number
Mn6+ 6
Na1+ 1
O2- -2
loop_
_atom_site_label
_atom_site_type_symbol
_atom_site_symmetry_multiplicity
_atom_site_Wyckoff_symbol
_atom_site_fract_x
_atom_site_fract_y
_atom_site_fract_z
_atom_site_B_iso_or_equiv
_atom_site_occupancy
_atom_site_attached_hydrogens
Mn1 Mn6+ 2 b 0.3333 0.6667 0.677(6) 0.03 1. 0
Na1 Na1+ 2 a 0 0 0 0.03 1. 0
Na2 Na1+ 2 b 0.3333 0.6667 0.074(6) 0.03 1. 0
O1 O2- 2 b 0.3333 0.6667 0.459(6) 0.03 1. 0
O2 O2- 6 c 0.188(2) 0.376(4) 0.750(6) 0.03 1. 0
