
#(C) 2017 by FIZ Karlsruhe - Leibniz Institute for Information Infrastructure.  All rights reserved.
data_39663-ICSD
_database_code_ICSD 39663
_audit_creation_date 1994-01-19
_chemical_name_systematic 'Yttrium tungsten boride (3/1/7)'
_chemical_formula_structural 'Y3 W B7'
_chemical_formula_sum 'B7 W1 Y3'
_chemical_name_structure_type ReY3B7
_exptl_crystal_density_diffrn 6.67
_publ_section_title

;
New borides with structure of Er3CrB7 type and refinement of the diagram of
state of Y-W-B system.
;
loop_
_citation_id
_citation_journal_full
_citation_year
_citation_journal_volume
_citation_page_first
_citation_page_last
_citation_journal_id_ASTM
primary 'Izvestiya Akademii Nauk SSSR, Neorganicheskie Materialy' 1992 28 2092
2095 IVNMAW
loop_
_publ_author_name
'Mikhalenko, S.I.'
'Chaban, N.F.'
'Kuz'ma, Yu.B.'
_cell_length_a 3.4670(9)
_cell_length_b 15.952(3)
_cell_length_c 9.475(2)
_cell_angle_alpha 90.
_cell_angle_beta 90.
_cell_angle_gamma 90.
_cell_volume 524.02
_cell_formula_units_Z 4
_symmetry_space_group_name_H-M 'C m c m'
_symmetry_Int_Tables_number 63
_refine_ls_R_factor_all 0.122
loop_
_symmetry_equiv_pos_site_id
_symmetry_equiv_pos_as_xyz
1 '-x, y, -z+1/2'
2 '-x, -y, z+1/2'
3 '-x, y, z'
4 '-x, -y, -z'
5 'x, -y, z+1/2'
6 'x, y, -z+1/2'
7 'x, -y, -z'
8 'x, y, z'
9 '-x+1/2, y+1/2, -z+1/2'
10 '-x+1/2, -y+1/2, z+1/2'
11 '-x+1/2, y+1/2, z'
12 '-x+1/2, -y+1/2, -z'
13 'x+1/2, -y+1/2, z+1/2'
14 'x+1/2, y+1/2, -z+1/2'
15 'x+1/2, -y+1/2, -z'
16 'x+1/2, y+1/2, z'
loop_
_atom_type_symbol
_atom_type_oxidation_number
Y3+ 3
W6+ 6
B2- -2.14
loop_
_atom_site_label
_atom_site_type_symbol
_atom_site_symmetry_multiplicity
_atom_site_Wyckoff_symbol
_atom_site_fract_x
_atom_site_fract_y
_atom_site_fract_z
_atom_site_B_iso_or_equiv
_atom_site_occupancy
_atom_site_attached_hydrogens
Y1 Y3+ 8 f 0 0.1061(8) 0.0561(11) 0.2(4) 1. 0
Y2 Y3+ 4 c 0 0.7586(9) 0.25 0.3(5) 1. 0
W1 W6+ 4 c 0 0.9482(6) 0.25 1.3(4) 1. 0
B1 B2- 8 f 0 0.274 0.023 1.0(4) 1. 0
B2 B2- 8 f 0 0.367 0.352 1.0(4) 1. 0
B3 B2- 8 f 0 0.481 0.408 1.0(4) 1. 0
B4 B2- 4 c 0 0.544 0.25 1.0(4) 1. 0
#End of TTdata_39663-ICSD