
data_400652-ICSD
_database_code_ICSD 400652
_audit_creation_date 1995-01-10
_audit_update_record 2007-08-01
_chemical_name_systematic 'Tricopper(I) tetraselenidoantimonate'
_chemical_formula_structural 'Cu3 (Sb Se4)'
_chemical_formula_sum 'Cu3 Sb1 Se4'
_chemical_name_structure_type Stannite-Cu2FeSnS4
_chemical_name_mineral Permingeatite
_exptl_crystal_density_diffrn 5.77
_cell_measurement_temperature 298.
_cell_length_a 5.6609(8)
_cell_length_b 5.6609(8)
_cell_length_c 11.280(5)
_cell_angle_alpha 90.
_cell_angle_beta 90.
_cell_angle_gamma 90.
_cell_volume 361.48
_cell_formula_units_Z 2
_symmetry_space_group_name_H-M 'I -4 2 m'
_symmetry_Int_Tables_number 121
_refine_ls_R_factor_all 0.032
loop_
_symmetry_equiv_pos_site_id
_symmetry_equiv_pos_as_xyz
1 '-y, -x, z'
2 'y, x, z'
3 'y, -x, -z'
4 '-y, x, -z'
5 'x, -y, -z'
6 '-x, y, -z'
7 '-x, -y, z'
8 'x, y, z'
9 '-y+1/2, -x+1/2, z+1/2'
10 'y+1/2, x+1/2, z+1/2'
11 'y+1/2, -x+1/2, -z+1/2'
12 '-y+1/2, x+1/2, -z+1/2'
13 'x+1/2, -y+1/2, -z+1/2'
14 '-x+1/2, y+1/2, -z+1/2'
15 '-x+1/2, -y+1/2, z+1/2'
16 'x+1/2, y+1/2, z+1/2'
loop_
_atom_type_symbol
_atom_type_oxidation_number
Sb5+ 5
Cu1+ 1
Se2- -2
loop_
_atom_site_label
_atom_site_type_symbol
_atom_site_symmetry_multiplicity
_atom_site_Wyckoff_symbol
_atom_site_fract_x
_atom_site_fract_y
_atom_site_fract_z
_atom_site_B_iso_or_equiv
_atom_site_occupancy
_atom_site_attached_hydrogens
Sb1 Sb5+ 2 a 0 0 0 . 1. 0
Cu1 Cu1+ 2 b 0 0 0.5 . 1. 0
Cu2 Cu1+ 4 d 0 0.5 0.25 . 1. 0
Se1 Se2- 8 i 0.2421(1) 0.2421(1) 0.36871(8) . 1. 0
loop_
_atom_site_aniso_label
_atom_site_aniso_type_symbol
_atom_site_aniso_U_11
_atom_site_aniso_U_22
_atom_site_aniso_U_33
_atom_site_aniso_U_12
_atom_site_aniso_U_13
_atom_site_aniso_U_23
Sb1 Sb5+ 0.0088(3) 0.0088(3) 0.0097(5) 0 0 0
Cu1 Cu1+ 0.0194(6) 0.0194(6) 0.019(1) 0 0 0
Cu2 Cu1+ 0.0189(4) 0.0189(4) 0.022(1) 0 0 0
Se1 Se2- 0.0177(4) 0.0177(4) 0.0146(6) -0.0013(2) -0.0008(2) -0.0008(2)
