
data_400817-ICSD
_database_code_ICSD 400817
_audit_creation_date 1995-10-17
_chemical_name_systematic 'Copper(I) tetraiodogallate'
_chemical_formula_structural 'Cu (Ga I4)'
_chemical_formula_sum 'Cu1 Ga1 I4'
_exptl_crystal_density_diffrn 4.94
_cell_length_a 6.1226(6)
_cell_length_b 6.1226(6)
_cell_length_c 11.497(2)
_cell_angle_alpha 90.
_cell_angle_beta 90.
_cell_angle_gamma 90.
_cell_volume 430.98
_cell_formula_units_Z 2
_symmetry_space_group_name_H-M 'I -4'
_symmetry_Int_Tables_number 82
_refine_ls_R_factor_all 0.035
loop_
_symmetry_equiv_pos_site_id
_symmetry_equiv_pos_as_xyz
1 '-y, x, -z'
2 'y, -x, -z'
3 '-x, -y, z'
4 'x, y, z'
5 '-y+1/2, x+1/2, -z+1/2'
6 'y+1/2, -x+1/2, -z+1/2'
7 '-x+1/2, -y+1/2, z+1/2'
8 'x+1/2, y+1/2, z+1/2'
loop_
_atom_type_symbol
_atom_type_oxidation_number
Cu1+ 1
Ga3+ 3
I1- -1
loop_
_atom_site_label
_atom_site_type_symbol
_atom_site_symmetry_multiplicity
_atom_site_Wyckoff_symbol
_atom_site_fract_x
_atom_site_fract_y
_atom_site_fract_z
_atom_site_B_iso_or_equiv
_atom_site_occupancy
_atom_site_attached_hydrogens
Cu1 Cu1+ 2 b 1 1 0.5 . 1. 0
Ga1 Ga3+ 2 c 0.5 1 0.75 . 1. 0
I1 I1- 8 g 0.74884(7) 0.76094(7) 0.87611(3) . 1. 0
loop_
_atom_site_aniso_label
_atom_site_aniso_type_symbol
_atom_site_aniso_beta_11
_atom_site_aniso_beta_22
_atom_site_aniso_beta_33
_atom_site_aniso_beta_12
_atom_site_aniso_beta_13
_atom_site_aniso_beta_23
Cu1 Cu1+ 0.0411(6) 0.0411(6) 0.0434(9) 0 0 0
Ga1 Ga3+ 0.0289(4) 0.0289(4) 0.0269(4) 0 0 0
I1 I1- 0.0291(2) 0.0352(2) 0.0355(2) -.00031(10) -.00231(11) 0.00761(11)
