
#(C) 2017 by FIZ Karlsruhe - Leibniz Institute for Information Infrastructure.  All rights reserved.
data_40205-ICSD
_database_code_ICSD 40205
_audit_creation_date 1999-11-30
_audit_update_record 2010-08-01
_chemical_name_systematic 'Tricalcium chromium trinitride'
_chemical_formula_structural 'Ca3 Cr N3'
_chemical_formula_sum 'Ca3 Cr1 N3'
_chemical_name_structure_type Ca3CrN3
_exptl_crystal_density_diffrn 3.23
_publ_section_title
'Synthesis, structure, and properties of a new ternary metal Ca3 Cr N3'
loop_
_citation_id
_citation_journal_full
_citation_year
_citation_journal_volume
_citation_page_first
_citation_page_last
_citation_journal_id_ASTM
primary 'Inorganic Chemistry' 1990 29 4059 4062 INOCAJ
loop_
_publ_author_name
'Vennos, D.A.'
'Badding, M.E.'
'DiSalvo, F.J.'
_cell_length_a 8.503(2)
_cell_length_b 10.284(2)
_cell_length_c 5.032(1)
_cell_angle_alpha 90.
_cell_angle_beta 90.
_cell_angle_gamma 90.
_cell_volume 440.02
_cell_formula_units_Z 4
_symmetry_space_group_name_H-M 'C m c m'
_symmetry_Int_Tables_number 63
_refine_ls_R_factor_all 0.039
loop_
_symmetry_equiv_pos_site_id
_symmetry_equiv_pos_as_xyz
1 '-x, y, -z+1/2'
2 '-x, -y, z+1/2'
3 '-x, y, z'
4 '-x, -y, -z'
5 'x, -y, z+1/2'
6 'x, y, -z+1/2'
7 'x, -y, -z'
8 'x, y, z'
9 '-x+1/2, y+1/2, -z+1/2'
10 '-x+1/2, -y+1/2, z+1/2'
11 '-x+1/2, y+1/2, z'
12 '-x+1/2, -y+1/2, -z'
13 'x+1/2, -y+1/2, z+1/2'
14 'x+1/2, y+1/2, -z+1/2'
15 'x+1/2, -y+1/2, -z'
16 'x+1/2, y+1/2, z'
loop_
_atom_type_symbol
_atom_type_oxidation_number
Ca2+ 2
Cr3+ 3
N3- -3
loop_
_atom_site_label
_atom_site_type_symbol
_atom_site_symmetry_multiplicity
_atom_site_Wyckoff_symbol
_atom_site_fract_x
_atom_site_fract_y
_atom_site_fract_z
_atom_site_B_iso_or_equiv
_atom_site_occupancy
_atom_site_attached_hydrogens
Ca1 Ca2+ 4 c 0 0.1079(2) 0.25 . 1. 0
Ca2 Ca2+ 8 g 0.2843(2) -.1174(1) 0.25 . 1. 0
Cr1 Cr3+ 4 c 0.5 0.1945 0.25 . 1. 0
N1 N3- 4 c 0.5 0.3757(8) 0.25 . 1. 0
N2 N3- 8 g 0.6918(8) 0.1286(6) 0.25 . 1. 0
#End of TTdata_40205-ICSD