
#(C) 2017 by FIZ Karlsruhe - Leibniz Institute for Information Infrastructure.  All rights reserved.
data_402719-ICSD
_database_code_ICSD 402719
_audit_creation_date 1998-06-26
_audit_update_record 2008-02-01
_chemical_name_systematic 'Tetrarubidium hexaselenodigermanate'
_chemical_formula_structural 'Rb4 (Ge2 Se6)'
_chemical_formula_sum 'Ge2 Rb4 Se6'
_chemical_name_structure_type Rb4Si2S6
_exptl_crystal_density_diffrn 3.91
_publ_section_title
'Crystal structure of tetrarubidium digermanium hexaselenide, Rb4 Ge2 Se6'
loop_
_citation_id
_citation_journal_full
_citation_year
_citation_journal_volume
_citation_page_first
_citation_page_last
_citation_journal_id_ASTM
primary 'Zeitschrift fuer Kristallographie - New Crystal Structures' 1997 212
302 302 ZKNSFT
loop_
_publ_author_name
'Klepp, K.O.'
'Fabian, F.'
_cell_length_a 13.885(6)
_cell_length_b 7.133(1)
_cell_length_c 9.984(5)
_cell_angle_alpha 90.
_cell_angle_beta 124.41(2)
_cell_angle_gamma 90.
_cell_volume 815.8
_cell_formula_units_Z 2
_symmetry_space_group_name_H-M 'C 1 2/m 1'
_symmetry_Int_Tables_number 12
_refine_ls_R_factor_all 0.044
loop_
_symmetry_equiv_pos_site_id
_symmetry_equiv_pos_as_xyz
1 '-x, y, -z'
2 '-x, -y, -z'
3 'x, -y, z'
4 'x, y, z'
5 '-x+1/2, y+1/2, -z'
6 '-x+1/2, -y+1/2, -z'
7 'x+1/2, -y+1/2, z'
8 'x+1/2, y+1/2, z'
loop_
_atom_type_symbol
_atom_type_oxidation_number
Rb1+ 1
Ge4+ 4
Se2- -2
loop_
_atom_site_label
_atom_site_type_symbol
_atom_site_symmetry_multiplicity
_atom_site_Wyckoff_symbol
_atom_site_fract_x
_atom_site_fract_y
_atom_site_fract_z
_atom_site_B_iso_or_equiv
_atom_site_occupancy
_atom_site_attached_hydrogens
Rb1 Rb1+ 4 i 0.5860(2) 0 0.3691(2) . 1. 0
Rb2 Rb1+ 4 i 0.8099(2) 0 0.1821(2) . 1. 0
Ge1 Ge4+ 4 i 0.1197(2) 0 0.1854(2) . 1. 0
Se1 Se2- 4 i 0.1117(2) 0 0.4078(2) . 1. 0
Se2 Se2- 4 i 0.2984(2) 0 0.2248(2) . 1. 0
Se3 Se2- 4 g 0 0.2864(4) 0 . 1. 0
loop_
_atom_site_aniso_label
_atom_site_aniso_type_symbol
_atom_site_aniso_U_11
_atom_site_aniso_U_22
_atom_site_aniso_U_33
_atom_site_aniso_U_12
_atom_site_aniso_U_13
_atom_site_aniso_U_23
Rb1 Rb1+ 0.0262(9) 0.029(1) 0.0290(9) 0 0.0133(6) 0
Rb2 Rb1+ 0.038(1) 0.043(1) 0.0342(9) 0 0.0190(8) 0
Ge1 Ge4+ 0.0194(9) 0.016(1) 0.0211(8) 0 0.0124(5) 0
Se1 Se2- 0.0295(9) 0.034(1) 0.0261(8) 0 0.0199(5) 0
Se2 Se2- 0.0243(9) 0.043(1) 0.0343(8) 0 0.0200(6) 0
Se3 Se2- 0.039(1) 0.013(1) 0.0267(8) 0 0.0127(6) 0
#End of TTdata_402719-ICSD