
#(C) 2017 by FIZ Karlsruhe - Leibniz Institute for Information Infrastructure.  All rights reserved.
data_40449-ICSD
_database_code_ICSD 40449
_audit_creation_date 1999-06-02
_audit_update_record 2002-04-01
_chemical_name_systematic 'Dicadmium triarsenide iodide'
_chemical_formula_structural 'Cd2 As3 I'
_chemical_formula_sum 'As3 Cd2 I1'
_chemical_name_structure_type Hg2P3Cl
_exptl_crystal_density_diffrn 6.05
_publ_section_title 'More space group changes'
loop_
_citation_id
_citation_journal_full
_citation_year
_citation_journal_volume
_citation_page_first
_citation_page_last
_citation_journal_id_ASTM
primary 'Acta Crystallographica, Section B: Structural Science' 1988 44 77 88
ASBSDK
loop_
_publ_author_name
'Marsh, R.E.'
'Herbstein, F.H.'
_cell_length_a 8.436(1)
_cell_length_b 9.594(2)
_cell_length_c 7.952(2)
_cell_angle_alpha 90.
_cell_angle_beta 100.65(2)
_cell_angle_gamma 90.
_cell_volume 632.51
_cell_formula_units_Z 4
_symmetry_space_group_name_H-M 'C 1 2/c 1'
_symmetry_Int_Tables_number 15
_refine_ls_R_factor_all 0.074
loop_
_symmetry_equiv_pos_site_id
_symmetry_equiv_pos_as_xyz
1 'x, -y, z+1/2'
2 '-x, -y, -z'
3 '-x, y, -z+1/2'
4 'x, y, z'
5 'x+1/2, -y+1/2, z+1/2'
6 '-x+1/2, -y+1/2, -z'
7 '-x+1/2, y+1/2, -z+1/2'
8 'x+1/2, y+1/2, z'
loop_
_atom_type_symbol
_atom_type_oxidation_number
I1- -1
Cd2+ 2
As1- -1
loop_
_atom_site_label
_atom_site_type_symbol
_atom_site_symmetry_multiplicity
_atom_site_Wyckoff_symbol
_atom_site_fract_x
_atom_site_fract_y
_atom_site_fract_z
_atom_site_B_iso_or_equiv
_atom_site_occupancy
_atom_site_attached_hydrogens
I1 I1- 4 e 0 0.3736(1) 0.25 0.0241(3) 1. 0
Cd1 Cd2+ 8 f 0.2451(1) 0.1444(1) 0.2900(2) 0.0221(2) 1. 0
As1 As1- 8 f 0.1243(2) 0.0472(1) -.0307(2) 0.0151(2) 1. 0
As2 As1- 4 e 0.5 0.2905(2) 0.25 0.0129(3) 1. 0
#End of TTdata_40449-ICSD