
#(C) 2017 by FIZ Karlsruhe - Leibniz Institute for Information Infrastructure.  All rights reserved.
data_40462-ICSD
_database_code_ICSD 40462
_audit_creation_date 1999-06-02
_audit_update_record 2009-08-01
_chemical_name_systematic 'Manganese germanide (5/2) - kappa'
_chemical_formula_structural 'Mn5 Ge2'
_chemical_formula_sum 'Ge2 Mn5'
_chemical_name_structure_type Ga2Mg5
_exptl_crystal_density_diffrn 7.19
_publ_section_title 'The structure of the kappa phase, Mn5 Ge2'
loop_
_citation_id
_citation_journal_full
_citation_year
_citation_journal_volume
_citation_page_first
_citation_page_last
_citation_journal_id_ASTM
primary 'Acta Crystallographica, Section C: Crystal Structure Communications'
1984 40 576 579 ACSCEE
loop_
_publ_author_name
'Ohba, T.'
'Ueyama, K.'
'Kitano, Y.'
'Komura, Y.'
_cell_length_a 11.781(8)
_cell_length_b 6.136(6)
_cell_length_c 5.368(2)
_cell_angle_alpha 90.
_cell_angle_beta 90.
_cell_angle_gamma 90.
_cell_volume 388.04
_cell_formula_units_Z 4
_symmetry_space_group_name_H-M 'I b a m'
_symmetry_Int_Tables_number 72
_refine_ls_R_factor_all 0.0402
loop_
_symmetry_equiv_pos_site_id
_symmetry_equiv_pos_as_xyz
1 '-x, y, z+1/2'
2 'x, -y, z+1/2'
3 'x, y, -z'
4 '-x, -y, -z'
5 'x, -y, -z+1/2'
6 '-x, y, -z+1/2'
7 '-x, -y, z'
8 'x, y, z'
9 '-x+1/2, y+1/2, z'
10 'x+1/2, -y+1/2, z'
11 'x+1/2, y+1/2, -z+1/2'
12 '-x+1/2, -y+1/2, -z+1/2'
13 'x+1/2, -y+1/2, -z'
14 '-x+1/2, y+1/2, -z'
15 '-x+1/2, -y+1/2, z+1/2'
16 'x+1/2, y+1/2, z+1/2'
loop_
_atom_type_symbol
_atom_type_oxidation_number
Ge0+ 0
Mn0+ 0
loop_
_atom_site_label
_atom_site_type_symbol
_atom_site_symmetry_multiplicity
_atom_site_Wyckoff_symbol
_atom_site_fract_x
_atom_site_fract_y
_atom_site_fract_z
_atom_site_B_iso_or_equiv
_atom_site_occupancy
_atom_site_attached_hydrogens
Ge1 Ge0+ 8 j 0.12005(13) 0.77664(27) 0 0.00717(79) 1. 0
Mn1 Mn0+ 4 b 0 0.5 0.25 0.0066(14) 1. 0
Mn2 Mn0+ 8 f 0.23028(16) 0.5 0.25 0.0082(11) 1. 0
Mn3 Mn0+ 8 j 0.10063(19) 0.19017(39) 0 0.0092(12) 1. 0
#End of TTdata_40462-ICSD