
#(C) 2017 by FIZ Karlsruhe - Leibniz Institute for Information Infrastructure.  All rights reserved.
data_405291-ICSD
_database_code_ICSD 405291
_audit_creation_date 2005-10-01
_audit_update_record 2013-08-01
_chemical_name_systematic 'Lanthanum boride bromide (4/4/5)'
_chemical_formula_structural 'La4 B4 Br5'
_chemical_formula_sum 'B4 Br5 La4'
_exptl_crystal_density_diffrn 4.98
_publ_section_title 'no title available'
loop_
_citation_id
_citation_journal_full
_citation_year
_citation_journal_volume
_citation_page_first
_citation_page_last
_citation_journal_id_ASTM
primary 'Astracts, ISBB 96, Baden, Austria, 1996' 1996 1996 1 1 ABIBAI
loop_
_publ_author_name
'Mattausch, H.J.'
'Simon, A.'
_cell_length_a 18.2559(12)
_cell_length_b 4.2942(3)
_cell_length_c 19.253(7)
_cell_angle_alpha 90.
_cell_angle_beta 118.07(2)
_cell_angle_gamma 90.
_cell_volume 1331.79
_cell_formula_units_Z 4
_symmetry_space_group_name_H-M 'C 1 2/m 1'
_symmetry_Int_Tables_number 12
_refine_ls_R_factor_all 0.0643
loop_
_symmetry_equiv_pos_site_id
_symmetry_equiv_pos_as_xyz
1 '-x, y, -z'
2 '-x, -y, -z'
3 'x, -y, z'
4 'x, y, z'
5 '-x+1/2, y+1/2, -z'
6 '-x+1/2, -y+1/2, -z'
7 'x+1/2, -y+1/2, z'
8 'x+1/2, y+1/2, z'
loop_
_atom_type_symbol
_atom_type_oxidation_number
La3+ 3
Br1- -1
B1- -1.75
loop_
_atom_site_label
_atom_site_type_symbol
_atom_site_symmetry_multiplicity
_atom_site_Wyckoff_symbol
_atom_site_fract_x
_atom_site_fract_y
_atom_site_fract_z
_atom_site_B_iso_or_equiv
_atom_site_occupancy
_atom_site_attached_hydrogens
La1 La3+ 4 i 0.16217(3) 0.5 0.27492(3) 0.01194(11) 1 0
La2 La3+ 4 i 0.37550(3) 0. 0.37488(3) 0.01029(10) 1 0
La3 La3+ 4 i 0.38576(3) 0.5 0.19745(3) 0.01157(11) 1 0
La4 La3+ 4 i 0.15876(3) 0. 0.08291(3) 0.01177(11) 1 0
Br1 Br1- 4 i 0.22424(6) 0. 0.40519(6) 0.0189(2) 1 0
Br2 Br1- 4 i 0.04263(6) 0. 0.16742(5) 0.0155(2) 1 0
Br3 Br1- 4 i 0.33401(6) 0. 0.06613(6) 0.0179(2) 1 0
Br4 Br1- 4 i 0.00685(6) 0.5 0.31469(6) 0.0169(2) 1 0
Br5 Br1- 2 c 0. 0. 0.5 0.0349(4) 1 0
Br6 Br1- 2 b 0.5 0. 0. 0.0199(3) 1 0
B1 B1- 8 j 0.2693(4) 0.1863(16) 0.2285(4) 0.0108(11) 1 0
B2 B1- 4 i 0.2268(5) 0.5 0.1725(6) 0.009(2) 1 0
B3 B1- 4 i 0.3119(6) 0.5 0.2866(6) 0.014(2) 1 0
loop_
_atom_site_aniso_label
_atom_site_aniso_type_symbol
_atom_site_aniso_U_11
_atom_site_aniso_U_22
_atom_site_aniso_U_33
_atom_site_aniso_U_12
_atom_site_aniso_U_13
_atom_site_aniso_U_23
La1 La3+ 0.0110(2) 0.0108(2) 0.0157(2) 0. 0.0076(2) 0.
La2 La3+ 0.0105(2) 0.0083(2) 0.0093(2) 0. 0.0024(2) 0.
La3 La3+ 0.0108(2) 0.0114(2) 0.0137(2) 0. 0.0067(2) 0.
La4 La3+ 0.0119(2) 0.0102(2) 0.0101(2) 0. 0.0026(2) 0.
Br1 Br1- 0.0251(5) 0.0175(5) 0.0185(4) 0. 0.0139(4) 0.
Br2 Br1- 0.0122(4) 0.0165(4) 0.0180(4) 0. 0.0072(3) 0.
Br3 Br1- 0.0204(4) 0.0168(5) 0.0156(4) 0. 0.0078(3) 0.
Br4 Br1- 0.0130(4) 0.0180(5) 0.0216(4) 0. 0.0096(3) 0.
Br5 Br1- 0.0372(9) 0.0143(7) 0.0220(7) 0. -0.0119(6) 0.
Br6 Br1- 0.0171(6) 0.0214(7) 0.0175(6) 0. 0.0052(5) 0.
B1 B1- 0.012(2) 0.007(2) 0.011(2) 0.001(2) 0.004(2) 0.001(2)
B2 B1- 0.004(3) 0.008(4) 0.014(4) 0. 0.003(3) 0.
B3 B1- 0.011(4) 0.006(4) 0.017(4) 0. 0.000(3) 0.
#End of TTdata_405291-ICSD