
#(C) 2017 by FIZ Karlsruhe - Leibniz Institute for Information Infrastructure.  All rights reserved.
data_405208-ICSD
_database_code_ICSD 405208
_audit_creation_date 1998-06-26
_audit_update_record 2013-02-01
_chemical_name_systematic 'Hafnium phosphide (7/4)'
_chemical_formula_structural 'Hf7 P4'
_chemical_formula_sum 'Hf7 P4'
_chemical_name_structure_type Nb7P4
_exptl_crystal_density_diffrn 11.71
_cell_measurement_temperature 296.
_publ_section_title
'Das binaere Phosphid Hf7 P4 - ein unerwartetes Syntheseprodukt'
loop_
_citation_id
_citation_journal_full
_citation_year
_citation_journal_volume
_citation_page_first
_citation_page_last
_citation_journal_id_ASTM
primary 'Angewandte Chemie (German Edition)' 1996 108 2062 2064 ANCEAD
loop_
_publ_author_name
'Kleinke, H.'
'Franzen, H.F.'
_cell_length_a 15.654(6)
_cell_length_b 3.5209(9)
_cell_length_c 14.596(7)
_cell_angle_alpha 90.
_cell_angle_beta 104.43(3)
_cell_angle_gamma 90.
_cell_volume 779.1
_cell_formula_units_Z 4
_symmetry_space_group_name_H-M 'C 1 2/m 1'
_symmetry_Int_Tables_number 12
_refine_ls_R_factor_all 0.0581
loop_
_symmetry_equiv_pos_site_id
_symmetry_equiv_pos_as_xyz
1 '-x, y, -z'
2 '-x, -y, -z'
3 'x, -y, z'
4 'x, y, z'
5 '-x+1/2, y+1/2, -z'
6 '-x+1/2, -y+1/2, -z'
7 'x+1/2, -y+1/2, z'
8 'x+1/2, y+1/2, z'
loop_
_atom_type_symbol
_atom_type_oxidation_number
Hf1+ 1.71
P3- -3
loop_
_atom_site_label
_atom_site_type_symbol
_atom_site_symmetry_multiplicity
_atom_site_Wyckoff_symbol
_atom_site_fract_x
_atom_site_fract_y
_atom_site_fract_z
_atom_site_B_iso_or_equiv
_atom_site_occupancy
_atom_site_attached_hydrogens
Hf1 Hf1+ 2 a 0 0 0 . 1. 0
Hf2 Hf1+ 2 d 0.5 0 0.5 . 1. 0
Hf3 Hf1+ 4 i 0.4305(1) 0 0.8290(2) . 1. 0
Hf4 Hf1+ 4 i 0.1972(1) 0 0.3124(2) . 1. 0
Hf5 Hf1+ 4 i 0.2055(1) 0 0.7972 . 1. 0
Hf6 Hf1+ 4 i 0.3391(1) 0 0.0291(2) . 1. 0
Hf7 Hf1+ 4 i 0.0038(1) 0 0.6695(2) . 1. 0
Hf8 Hf1+ 4 i 0.1756(1) 0 0.5394(2) . 1. 0
P1 P3- 4 i 0.1750(8) 0 0.1073(10) 0.0061 1. 0
P2 P3- 4 i 0.3740(8) 0 0.600(1) 0.0077 1. 0
P3 P3- 4 i 0.3689(9) 0 0.339(1) 0.0063 1. 0
P4 P3- 4 i 0.0626(8) 0 0.853(1) 0.0082 1. 0
loop_
_atom_site_aniso_label
_atom_site_aniso_type_symbol
_atom_site_aniso_U_11
_atom_site_aniso_U_22
_atom_site_aniso_U_33
_atom_site_aniso_U_12
_atom_site_aniso_U_13
_atom_site_aniso_U_23
Hf1 Hf1+ 0.005(1) 0.013(1) 0.001(1) 0 -.0014(9) 0
Hf2 Hf1+ 0.004(1) 0.012(1) 0.001(1) 0 0.0014(9) 0
Hf3 Hf1+ 0.0063(8) 0.011(1) 0.0087(10) 0 0.0032(7) 0
Hf4 Hf1+ 0.0032(7) 0.0111(9) 0.0044(9) 0 0.0008(6) 0
Hf5 Hf1+ 0.0043(7) 0.0075(9) 0.0049(9) 0 0.0020(6) 0
Hf6 Hf1+ 0.0046(7) 0.0080(9) 0.0073(10) 0 0.0010(6) 0
Hf7 Hf1+ 0.0041(7) 0.0098(9) 0.0064(9) 0 0.0012(6) 0
Hf8 Hf1+ 0.0052(8) 0.0086(9) 0.0052(9) 0 0.0009(7) 0
#End of TTdata_405208-ICSD