
#(C) 2017 by FIZ Karlsruhe - Leibniz Institute for Information Infrastructure.  All rights reserved.
data_406953-ICSD
_database_code_ICSD 406953
_audit_creation_date 1998-06-26
_audit_update_record 2002-04-01
_chemical_name_systematic 'Hafnium cobalt arsenide (1/1/1)'
_chemical_formula_structural 'Hf Co As'
_chemical_formula_sum 'As1 Co1 Hf1'
_chemical_name_structure_type TiNiSi-MgSrSi
_exptl_crystal_density_diffrn 11.7
_cell_measurement_temperature 296.2
_publ_section_title

;
Crystal structures, bonding and electronic structures of M M' As a series of
new ternary arsenides (M= Zr, Hf; M'= Fe, Co, Ni).
;
loop_
_citation_id
_citation_journal_full
_citation_year
_citation_journal_volume
_citation_page_first
_citation_page_last
_citation_journal_id_ASTM
primary 'Zeitschrift fuer Anorganische und Allgemeine Chemie (1950) (DE)' 1998
624 51 56 ZAACAB
loop_
_publ_author_name
'Kleinke, H.'
_cell_length_a 6.433(3)
_cell_length_b 3.802(2)
_cell_length_c 7.249(4)
_cell_angle_alpha 90.
_cell_angle_beta 90.
_cell_angle_gamma 90.
_cell_volume 177.3
_cell_formula_units_Z 4
_symmetry_space_group_name_H-M 'P n m a'
_symmetry_Int_Tables_number 62
_refine_ls_R_factor_all 0.026
loop_
_symmetry_equiv_pos_site_id
_symmetry_equiv_pos_as_xyz
1 'x+1/2, y, -z+1/2'
2 'x, -y+1/2, z'
3 '-x+1/2, y+1/2, z+1/2'
4 '-x, -y, -z'
5 '-x+1/2, -y, z+1/2'
6 '-x, y+1/2, -z'
7 'x+1/2, -y+1/2, -z+1/2'
8 'x, y, z'
loop_
_atom_type_symbol
_atom_type_oxidation_number
Hf2+ 2
As3- -3
Co1+ 1
loop_
_atom_site_label
_atom_site_type_symbol
_atom_site_symmetry_multiplicity
_atom_site_Wyckoff_symbol
_atom_site_fract_x
_atom_site_fract_y
_atom_site_fract_z
_atom_site_B_iso_or_equiv
_atom_site_occupancy
_atom_site_attached_hydrogens
Hf1 Hf2+ 4 c 0.02033(5) 0.25 0.68604(8) . 1. 0
As1 As3- 4 c 0.2691(1) 0.25 0.3841(2) . 1. 0
Co1 Co1+ 4 c 0.1422(2) 0.25 0.0637(3) . 1. 0
loop_
_atom_site_aniso_label
_atom_site_aniso_type_symbol
_atom_site_aniso_U_11
_atom_site_aniso_U_22
_atom_site_aniso_U_33
_atom_site_aniso_U_12
_atom_site_aniso_U_13
_atom_site_aniso_U_23
Hf1 Hf2+ 0.0074(2) 0.0073(2) 0.0051(3) 0 -0.0008(2) 0
As1 As3- 0.0095(4) 0.0076(5) 0.0089(7) 0 0.0002(4) 0
Co1 Co1+ 0.0097(5) 0.0083(6) 0.0066(9) 0 0.0003(5) 0
#End of TTdata_406953-ICSD