
#(C) 2017 by FIZ Karlsruhe - Leibniz Institute for Information Infrastructure.  All rights reserved.
data_407247-ICSD
_database_code_ICSD 407247
_audit_creation_date 1999-06-02
_audit_update_record 2002-04-01
_chemical_name_systematic 'Lanthanum silicide iodide (4/4/3)'
_chemical_formula_structural 'La4 Si4 I3'
_chemical_formula_sum 'I3 La4 Si4'
_exptl_crystal_density_diffrn 5.41
_publ_section_title
'Si6, Si14 and Si22 rings in iodide silicides of rare earth metals'
loop_
_citation_id
_citation_journal_full
_citation_year
_citation_journal_volume
_citation_page_first
_citation_page_last
_citation_journal_id_ASTM
primary 'Angewandte Chemie. International Edition' 1998 37 499 502 ACIEF5
loop_
_publ_author_name
'Mattausch, H.J.'
'Simon, A.'
_cell_length_a 24.3600(50)
_cell_length_b 4.240(1)
_cell_length_c 12.570(3)
_cell_angle_alpha 90.
_cell_angle_beta 97.59(3)
_cell_angle_gamma 90.
_cell_volume 1286.94
_cell_formula_units_Z 4
_symmetry_space_group_name_H-M 'C 1 2/m 1'
_symmetry_Int_Tables_number 12
_refine_ls_R_factor_all 0.0438
loop_
_symmetry_equiv_pos_site_id
_symmetry_equiv_pos_as_xyz
1 '-x, y, -z'
2 '-x, -y, -z'
3 'x, -y, z'
4 'x, y, z'
5 '-x+1/2, y+1/2, -z'
6 '-x+1/2, -y+1/2, -z'
7 'x+1/2, -y+1/2, z'
8 'x+1/2, y+1/2, z'
loop_
_atom_type_symbol
_atom_type_oxidation_number
La0+ 0
I0+ 0
Si0+ 0
loop_
_atom_site_label
_atom_site_type_symbol
_atom_site_symmetry_multiplicity
_atom_site_Wyckoff_symbol
_atom_site_fract_x
_atom_site_fract_y
_atom_site_fract_z
_atom_site_B_iso_or_equiv
_atom_site_occupancy
_atom_site_attached_hydrogens
La1 La0+ 4 i 0.50362(2) 0 0.16525(4) . 1. 0
La2 La0+ 4 i 0.57469(2) 0.5 0.44557(4) . 1. 0
La3 La0+ 4 i 0.36134(2) 0 0.29183(4) . 1. 0
La4 La0+ 4 i 0.35482(2) 0 0.97600(4) . 1. 0
I1 I0+ 4 i 0.6328(1) 0 0.2889(1) . 1. 0
I2 I0+ 4 i 0.20135(3) 0 0.57291(5) . 1. 0
I3 I0+ 4 i 0.24345(3) 0 0.13110(5) . 1. 0
Si1 Si0+ 4 i 0.5230(3) 0 0.5902(2) . 1. 0
Si2 Si0+ 4 i 0.54275(11) -.5 -.3172(2) . 1. 0
Si3 Si0+ 4 i 0.55103(11) -.5 0.0168(2) . 1. 0
Si4 Si0+ 4 i 0.59672(11) -.5 -.1400(2) . 1. 0
loop_
_atom_site_aniso_label
_atom_site_aniso_type_symbol
_atom_site_aniso_U_11
_atom_site_aniso_U_22
_atom_site_aniso_U_33
_atom_site_aniso_U_12
_atom_site_aniso_U_13
_atom_site_aniso_U_23
La1 La0+ 0.0106(2) 0.0075(3) 0.0059(2) 0 0.0026(2) 0
La2 La0+ 0.0104(2) 0.0099(3) 0.0054(2) 0 0.0019(2) 0
La3 La0+ 0.0106(2) 0.0092(3) 0.0064(2) 0 0.0023(2) 0
La4 La0+ 0.0115(2) 0.0089(3) 0.0069(2) 0 0.0008(2) 0
I1 I0+ 0.0158(3) 0.0150(4) 0.0095(3) 0 0.0040(2) 0
I2 I0+ 0.0134(3) 0.0133(4) 0.0137(3) 0 0.0058(2) 0
I3 I0+ 0.0141(3) 0.0147(4) 0.0141(3) 0 -0.0015(2) 0
Si1 Si0+ 0.0145(12) 0.013(2) 0.0094(12) 0 0.002(1) 0
Si2 Si0+ 0.0142(12) 0.0097(15) 0.0080(11) 0 0.0022(9) 0
Si3 Si0+ 0.0111(11) 0.0098(14) 0.0075(11) 0 0.0042(9) 0
Si4 Si0+ 0.0111(11) 0.0089(14) 0.0074(11) 0 0.0030(9) 0
#End of TTdata_407247-ICSD