
#(C) 2017 by FIZ Karlsruhe - Leibniz Institute for Information Infrastructure.  All rights reserved.
data_40760-ICSD
_database_code_ICSD 40760
_audit_creation_date 2000-07-15
_audit_update_record 2006-04-01
_chemical_name_systematic 'Yttrium rhodium silicide (2/3/5)'
_chemical_formula_structural 'Y2 Rh3 Si5'
_chemical_formula_sum 'Rh3 Si5 Y2'
_chemical_name_structure_type Co3Lu2Si5
_exptl_crystal_density_diffrn 6.41
_publ_section_title

;
Y2 Rh3 Si5, Dy2 Rh3 Si5 with a monoclinic structural deformation variant of
the orthorhombic U2 Co3 Si5-type
;
loop_
_citation_id
_citation_journal_full
_citation_year
_citation_journal_volume
_citation_page_first
_citation_page_last
_citation_journal_id_ASTM
primary 'Journal of the Less-Common Metals' 1987 127 125 129 JCOMAH
loop_
_publ_author_name
'Paccard, D.'
'Paccard, L.'
_cell_length_a 11.078(8)
_cell_length_b 11.701(6)
_cell_length_c 5.656(4)
_cell_angle_alpha 90.
_cell_angle_beta 118.51(6)
_cell_angle_gamma 90.
_cell_volume 644.25
_cell_formula_units_Z 4
_symmetry_space_group_name_H-M 'C 1 2/c 1'
_symmetry_Int_Tables_number 15
_refine_ls_R_factor_all 0.088
loop_
_symmetry_equiv_pos_site_id
_symmetry_equiv_pos_as_xyz
1 'x, -y, z+1/2'
2 '-x, -y, -z'
3 '-x, y, -z+1/2'
4 'x, y, z'
5 'x+1/2, -y+1/2, z+1/2'
6 '-x+1/2, -y+1/2, -z'
7 '-x+1/2, y+1/2, -z+1/2'
8 'x+1/2, y+1/2, z'
loop_
_atom_type_symbol
_atom_type_oxidation_number
Y0+ 0
Rh0+ 0
Si0+ 0
loop_
_atom_site_label
_atom_site_type_symbol
_atom_site_symmetry_multiplicity
_atom_site_Wyckoff_symbol
_atom_site_fract_x
_atom_site_fract_y
_atom_site_fract_z
_atom_site_B_iso_or_equiv
_atom_site_occupancy
_atom_site_attached_hydrogens
Y1 Y0+ 8 f 0.2684(3) 0.1339(3) 0.2630(7) 0.12(6) 1. 0
Rh1 Rh0+ 8 f 0.1017(2) 0.3603(2) 0.1236(5) 0.11(4) 1. 0
Rh2 Rh0+ 4 e 0 0.0014(4) 0.25 0.11(6) 1. 0
Si1 Si0+ 8 f 0.335(1) 0.3962(9) 0.331(2) 0.3(2) 1. 0
Si2 Si0+ 4 e 0 0.207(1) 0.25 0.1(2) 1. 0
Si3 Si0+ 4 e 0 0.515(1) 0.25 1.2(3) 1. 0
Si4 Si0+ 4 e 0 0.782(1) 0.25 0.8(3) 1. 0
#End of TTdata_40760-ICSD