
#(C) 2017 by FIZ Karlsruhe - Leibniz Institute for Information Infrastructure.  All rights reserved.
data_40793-ICSD
_database_code_ICSD 40793
_audit_creation_date 2000-07-15
_chemical_name_systematic 'Silver molybdenum telluride (1/6/6)'
_chemical_formula_structural 'Ag Mo6 Te6'
_chemical_formula_sum 'Ag1 Mo6 Te6'
_exptl_crystal_density_diffrn 7.52
_publ_section_title

;
Ag Mo6 Te6: noveau type structural unidimensionnel a chaines lineaires (Mo6/2)
;
loop_
_citation_id
_citation_journal_full
_citation_year
_citation_journal_volume
_citation_page_first
_citation_page_last
_citation_journal_id_ASTM
primary 'Journal of Solid State Chemistry' 1987 68 137 142 JSSCBI
loop_
_publ_author_name
'Gougeon, P.'
'Potel, M.'
'Padiou, J.'
'Sergent, M.'
_cell_length_a 17.450(9)
_cell_length_b 4.585(2)
_cell_length_c 9.129(5)
_cell_angle_alpha 90.
_cell_angle_beta 118.75(2)
_cell_angle_gamma 90.
_cell_volume 640.36
_cell_formula_units_Z 2
_symmetry_space_group_name_H-M 'C 1 2/m 1'
_symmetry_Int_Tables_number 12
_refine_ls_R_factor_all 0.023
loop_
_symmetry_equiv_pos_site_id
_symmetry_equiv_pos_as_xyz
1 '-x, y, -z'
2 '-x, -y, -z'
3 'x, -y, z'
4 'x, y, z'
5 '-x+1/2, y+1/2, -z'
6 '-x+1/2, -y+1/2, -z'
7 'x+1/2, -y+1/2, z'
8 'x+1/2, y+1/2, z'
loop_
_atom_type_symbol
_atom_type_oxidation_number
Mo0+ 0
Te0+ 0
Ag0+ 0
loop_
_atom_site_label
_atom_site_type_symbol
_atom_site_symmetry_multiplicity
_atom_site_Wyckoff_symbol
_atom_site_fract_x
_atom_site_fract_y
_atom_site_fract_z
_atom_site_B_iso_or_equiv
_atom_site_occupancy
_atom_site_attached_hydrogens
Mo1 Mo0+ 4 i 0.71559(4) 0 0.31020(8) . 1. 0
Mo2 Mo0+ 4 i 0.84841(4) 0 0.62319(8) . 1. 0
Mo3 Mo0+ 4 i 0.68426(4) 0 0.56850(8) . 1. 0
Te1 Te0+ 4 i 0.88622(3) 0 0.35805(7) . 1. 0
Te2 Te0+ 4 i 0.53957(3) 0 0.25262(7) . 1. 0
Te3 Te0+ 4 i 0.81636(4) 0 0.90128(7) . 1. 0
Ag1 Ag0+ 2 a 0 0 0 . 1. 0
loop_
_atom_site_aniso_label
_atom_site_aniso_type_symbol
_atom_site_aniso_beta_11
_atom_site_aniso_beta_22
_atom_site_aniso_beta_33
_atom_site_aniso_beta_12
_atom_site_aniso_beta_13
_atom_site_aniso_beta_23
Mo1 Mo0+ 0.00049(2) 0.0044(3) 0.00195(7) 0 0.000215(25) 0
Mo2 Mo0+ 0.00048(2) 0.0044(3) 0.00202(7) 0 0.000255(30) 0
Mo3 Mo0+ 0.00050(2) 0.0045(3) 0.00192(7) 0 0.000285(25) 0
Te1 Te0+ 0.00090(2) 0.0091(3) 0.00402(6) 0 0.001075(20) 0
Te2 Te0+ 0.00066(2) 0.0090(3) 0.00399(7) 0 0.000065(25) 0
Te3 Te0+ 0.00117(2) 0.0113(3) 0.00232(6) 0 0.00048(2) 0
Ag1 Ag0+ 0.00150(4) 0.059(5) 0.0059(2) 0 -.00020(5) 0
#End of TTdata_40793-ICSD