
#(C) 2017 by FIZ Karlsruhe - Leibniz Institute for Information Infrastructure.  All rights reserved.
data_40821-ICSD
_database_code_ICSD 40821
_audit_creation_date 2000-07-15
_chemical_name_systematic 'Thallium chromium sulfide (1/5/8)'
_chemical_formula_structural 'Tl Cr5 S8'
_chemical_formula_sum 'Cr5 S8 Tl1'
_chemical_name_structure_type Cr5CsS8
_exptl_crystal_density_diffrn 4.72
_publ_section_title

;
On the crystal chemistry of hollandite-like phases with Tl V5 S8 structure:
The crystal structures of Tl(x) Ti5 S8, Tl(x) V5 S8 and Tl Cr5 S8
;
loop_
_citation_id
_citation_journal_full
_citation_year
_citation_journal_volume
_citation_page_first
_citation_page_last
_citation_journal_id_ASTM
primary 'Materials Research Bulletin' 1987 22 1499 1504 MRBUAC
loop_
_publ_author_name
'Quint, R.'
'Boller, H.'
_cell_length_a 17.767(6)
_cell_length_b 3.431(1)
_cell_length_c 8.594(3)
_cell_angle_alpha 90.
_cell_angle_beta 104.68(3)
_cell_angle_gamma 90.
_cell_volume 506.78
_cell_formula_units_Z 2
_symmetry_space_group_name_H-M 'C 1 2/m 1'
_symmetry_Int_Tables_number 12
loop_
_symmetry_equiv_pos_site_id
_symmetry_equiv_pos_as_xyz
1 '-x, y, -z'
2 '-x, -y, -z'
3 'x, -y, z'
4 'x, y, z'
5 '-x+1/2, y+1/2, -z'
6 '-x+1/2, -y+1/2, -z'
7 'x+1/2, -y+1/2, z'
8 'x+1/2, y+1/2, z'
loop_
_atom_type_symbol
_atom_type_oxidation_number
Tl1+ 1
Cr3+ 3
S2- -2
loop_
_atom_site_label
_atom_site_type_symbol
_atom_site_symmetry_multiplicity
_atom_site_Wyckoff_symbol
_atom_site_fract_x
_atom_site_fract_y
_atom_site_fract_z
_atom_site_B_iso_or_equiv
_atom_site_occupancy
_atom_site_attached_hydrogens
Tl1 Tl1+ 2 a 0 0 0 0.0456 1. 0
Cr1 Cr3+ 2 d 0 0.5 0.5 0.0096 1. 0
Cr2 Cr3+ 4 i 0.7931(1) 0 0.1507(1) 0.009 1. 0
Cr3 Cr3+ 4 i 0.1593(1) 0 0.4903(1) 0.0099 1. 0
S1 S2- 4 i 0.6621(1) 0 -.0009(2) 0.0099 1. 0
S2 S2- 4 i 0.2588(1) 0 0.3342(2) 0.0089 1. 0
S3 S2- 4 i 0.5872(1) 0 0.3229(2) 0.0099 1. 0
S4 S2- 4 i 0.9248(1) 0 0.3313(2) 0.0084 1. 0
#End of TTdata_40821-ICSD