
#(C) 2017 by FIZ Karlsruhe - Leibniz Institute for Information Infrastructure.  All rights reserved.
data_40823-ICSD
_database_code_ICSD 40823
_audit_creation_date 2000-07-15
_audit_update_record 2005-10-01
_chemical_name_systematic 'Iridium selenide (3/8)'
_chemical_formula_structural 'Ir3 Se8'
_chemical_formula_sum 'Ir3 Se8'
_chemical_name_structure_type Rh3Te8
_exptl_crystal_density_diffrn 9.72
_publ_section_title

;
Synthesis and powder diffraction study of a pyrite-like phase in the Ir-Se
system
;
loop_
_citation_id
_citation_journal_full
_citation_year
_citation_journal_volume
_citation_page_first
_citation_page_last
_citation_journal_id_ASTM
primary 'Materials Research Bulletin' 1987 22 75 82 MRBUAC
loop_
_publ_author_name
'Squattrito, P.J.'
'Yun, H.'
'Ibers, J.A.'
_cell_length_a 5.9148(4)
_cell_length_b 5.9148(4)
_cell_length_c 5.9148(4)
_cell_angle_alpha 90.317(16)
_cell_angle_beta 90.317(16)
_cell_angle_gamma 90.317(16)
_cell_volume 206.92
_cell_formula_units_Z 1
_symmetry_space_group_name_H-M 'R -3 R'
_symmetry_Int_Tables_number 148
_refine_ls_R_factor_all 0.053
loop_
_symmetry_equiv_pos_site_id
_symmetry_equiv_pos_as_xyz
1 '-z, -x, -y'
2 '-y, -z, -x'
3 '-x, -y, -z'
4 'z, x, y'
5 'y, z, x'
6 'x, y, z'
loop_
_atom_type_symbol
_atom_type_oxidation_number
Ir2+ 2.67
Se1- -1
loop_
_atom_site_label
_atom_site_type_symbol
_atom_site_symmetry_multiplicity
_atom_site_Wyckoff_symbol
_atom_site_fract_x
_atom_site_fract_y
_atom_site_fract_z
_atom_site_B_iso_or_equiv
_atom_site_occupancy
_atom_site_attached_hydrogens
Ir1 Ir2+ 3 e 0 0.5 0.5 0.27(9) 1. 0
Se1 Se1- 2 c 0.3745(8) 0.3745(8) 0.3745(8) -.95(6) 1. 0
Se2 Se1- 6 f 0.894(2) 0.106(2) 0.614(2) 1.15(14) 1. 0
#End of TTdata_40823-ICSD