
#(C) 2017 by FIZ Karlsruhe - Leibniz Institute for Information Infrastructure.  All rights reserved.
data_40862-ICSD
_database_code_ICSD 40862
_audit_creation_date 2000-07-15
_chemical_name_systematic 'Bismsuth selenide chloride'
_chemical_formula_structural 'Bi Se Cl'
_chemical_formula_sum 'Bi1 Cl1 Se1'
_chemical_name_structure_type PbCl2
_exptl_crystal_density_diffrn 6.77
_publ_section_title 'Crystal structure of bismuth selenochloride, Bi Se Cl'
loop_
_citation_id
_citation_journal_full
_citation_year
_citation_journal_volume
_citation_page_first
_citation_page_last
_citation_journal_id_ASTM
primary

;
Zeitschrift fuer Kristallographie, Kristallgeometrie, Kristallphysik,
Kristallchemie (-144,1977)
; 1986 177 117 124 ZEKGAX
loop_
_publ_author_name
'Voutsas, G.P.'
'Rentzeperis, P.J.'
'Siapkas, D.'
_cell_length_a 8.0787(8)
_cell_length_b 9.3046(6)
_cell_length_c 4.2182(4)
_cell_angle_alpha 90.
_cell_angle_beta 90.
_cell_angle_gamma 90.
_cell_volume 317.08
_cell_formula_units_Z 4
_symmetry_space_group_name_H-M 'P n a m'
_symmetry_Int_Tables_number 62
_refine_ls_R_factor_all 0.032
loop_
_symmetry_equiv_pos_site_id
_symmetry_equiv_pos_as_xyz
1 'x+1/2, -y+1/2, z'
2 'x, y, -z+1/2'
3 '-x+1/2, y+1/2, z+1/2'
4 '-x, -y, -z'
5 '-x+1/2, y+1/2, -z'
6 '-x, -y, z+1/2'
7 'x+1/2, -y+1/2, -z+1/2'
8 'x, y, z'
loop_
_atom_type_symbol
_atom_type_oxidation_number
Bi3+ 3
Se2- -2
Cl1- -1
loop_
_atom_site_label
_atom_site_type_symbol
_atom_site_symmetry_multiplicity
_atom_site_Wyckoff_symbol
_atom_site_fract_x
_atom_site_fract_y
_atom_site_fract_z
_atom_site_B_iso_or_equiv
_atom_site_occupancy
_atom_site_attached_hydrogens
Bi1 Bi3+ 4 c 0.3086(1) 0.4120(1) 0.25 . 1. 0
Se1 Se2- 4 c 0.4721(1) 0.6685(1) 0.25 . 1. 0
Cl1 Cl1- 4 c 0.3548(5) 0.0720(4) 0.25 . 1. 0
loop_
_atom_site_aniso_label
_atom_site_aniso_type_symbol
_atom_site_aniso_U_11
_atom_site_aniso_U_22
_atom_site_aniso_U_33
_atom_site_aniso_U_12
_atom_site_aniso_U_13
_atom_site_aniso_U_23
Bi1 Bi3+ 0.0192(3) 0.0163(3) 0.0173(3) -.0018(2) 0 0
Se1 Se2- 0.0182(7) 0.0099(6) 0.0152(6) -.0002(5) 0 0
Cl1 Cl1- 0.0227(9) 0.0177(9) 0.0217(9) -.0038(8) 0 0
#End of TTdata_40862-ICSD