
#(C) 2017 by FIZ Karlsruhe - Leibniz Institute for Information Infrastructure.  All rights reserved.
data_40876-ICSD
_database_code_ICSD 40876
_audit_creation_date 2000-07-15
_chemical_name_systematic 'Rubidium pentaindium sulfide'
_chemical_formula_structural 'Rb In5 S8'
_chemical_formula_sum 'In5 Rb1 S8'
_chemical_name_structure_type Cr5CsS8
_exptl_crystal_density_diffrn 4.62
_publ_section_title

;
Splitpositionen fuer Alkalimetallkationen in den Thioindaten M In5 S8 (M= K,
Rb, Cs)?
;
loop_
_citation_id
_citation_journal_full
_citation_year
_citation_journal_volume
_citation_page_first
_citation_page_last
_citation_journal_id_ASTM
primary

;
Zeitschrift fuer Kristallographie, Kristallgeometrie, Kristallphysik,
Kristallchemie (-144,1977)
; 1986 177 307 314 ZEKGAX
loop_
_publ_author_name
'Deiseroth, H.J.'
_cell_length_a 18.995(5)
_cell_length_b 3.852(1)
_cell_length_c 9.233(3)
_cell_angle_alpha 90.
_cell_angle_beta 102.75(2)
_cell_angle_gamma 90.
_cell_volume 658.91
_cell_formula_units_Z 2
_symmetry_space_group_name_H-M 'C 1 2/m 1'
_symmetry_Int_Tables_number 12
_refine_ls_R_factor_all 0.0383
loop_
_symmetry_equiv_pos_site_id
_symmetry_equiv_pos_as_xyz
1 '-x, y, -z'
2 '-x, -y, -z'
3 'x, -y, z'
4 'x, y, z'
5 '-x+1/2, y+1/2, -z'
6 '-x+1/2, -y+1/2, -z'
7 'x+1/2, -y+1/2, z'
8 'x+1/2, y+1/2, z'
loop_
_atom_type_symbol
_atom_type_oxidation_number
In3+ 3
S2- -2
Rb1+ 1
loop_
_atom_site_label
_atom_site_type_symbol
_atom_site_symmetry_multiplicity
_atom_site_Wyckoff_symbol
_atom_site_fract_x
_atom_site_fract_y
_atom_site_fract_z
_atom_site_B_iso_or_equiv
_atom_site_occupancy
_atom_site_attached_hydrogens
In1 In3+ 2 a 0 0 0 . 1. 0
In2 In3+ 4 i 0.21107(6) 0.5 0.33936(11) . 1. 0
In3 In3+ 4 i 0.35192(5) 0 0.07932(12) . 1. 0
S1 S2- 4 i 0.23615(18) 0 0.15256(37) . 1. 0
S2 S2- 4 i 0.16548(19) 0 0.48188(38) . 1. 0
S3 S2- 4 i 0.08319(17) 0.5 0.13208(37) . 1. 0
S4 S2- 4 i 0.42624(18) 0.5 0.20634(38) . 1. 0
Rb1 Rb1+ 2 d 0.5 0 0.5 . 1. 0
loop_
_atom_site_aniso_label
_atom_site_aniso_type_symbol
_atom_site_aniso_U_11
_atom_site_aniso_U_22
_atom_site_aniso_U_33
_atom_site_aniso_U_12
_atom_site_aniso_U_13
_atom_site_aniso_U_23
In1 In3+ 0.0199(6) 0.0162(7) 0.0228(7) 0 0.0067(5) 0
In2 In3+ 0.0287(5) 0.0178(5) 0.0178(5) 0 0.0033(4) 0
In3 In3+ 0.0216(5) 0.0216(5) 0.0299(6) 0 0.0117(4) 0
S1 S2- 0.0192(14) 0.0194(17) 0.0204(15) 0 0.0071(12) 0
S2 S2- 0.0246(16) 0.0197(17) 0.0192(15) 0 0.0064(12) 0
S3 S2- 0.0182(14) 0.0161(18) 0.0207(16) 0 0.0023(12) 0
S4 S2- 0.0219(15) 0.0189(17) 0.0218(16) 0 0.0077(12) 0
Rb1 Rb1+ 0.105(3) 0.031(1) 0.040(2) 0 -.026(2) 0
#End of TTdata_40876-ICSD