
data_409223-ICSD
_database_code_ICSD 409223
_audit_creation_date 2005-10-01
_chemical_name_systematic 'Tripotassium bismuth - alpha'
_chemical_formula_structural 'Bi K3'
_chemical_formula_sum 'Bi1 K3'
_chemical_name_structure_type LaF3(P63mc)
_exptl_crystal_density_diffrn 3.03
_cell_length_a 10.649(2)
_cell_length_b 10.649(2)
_cell_length_c 10.940(2)
_cell_angle_alpha 90.
_cell_angle_beta 90.
_cell_angle_gamma 120.
_cell_volume 1074.4
_cell_formula_units_Z 6
_symmetry_space_group_name_H-M 'P 63 c m'
_symmetry_Int_Tables_number 185
_refine_ls_R_factor_all 0.0901
loop_
_symmetry_equiv_pos_site_id
_symmetry_equiv_pos_as_xyz
1 'x, x-y, z+1/2'
2 '-x+y, y, z+1/2'
3 '-y, -x, z+1/2'
4 'x-y, x, z+1/2'
5 'y, -x+y, z+1/2'
6 '-x, -y, z+1/2'
7 '-x, -x+y, z'
8 'x-y, -y, z'
9 'y, x, z'
10 '-x+y, -x, z'
11 '-y, x-y, z'
12 'x, y, z'
loop_
_atom_type_symbol
_atom_type_oxidation_number
Bi0+ 0
K0+ 0
loop_
_atom_site_label
_atom_site_type_symbol
_atom_site_symmetry_multiplicity
_atom_site_Wyckoff_symbol
_atom_site_fract_x
_atom_site_fract_y
_atom_site_fract_z
_atom_site_B_iso_or_equiv
_atom_site_occupancy
_atom_site_attached_hydrogens
Bi1 Bi0+ 6 c 0.3321(2) 0.3321(2) 0.7499(9) 0.0362(2) 1 0
K1 K0+ 6 c 0.3128(11) 0.3128(11) 0.0841(5) 0.071(3) 1 0
K2 K0+ 6 c 0.3547(7) 0.3547(7) 0.4193(5) 0.064(2) 1 0
K3 K0+ 4 b 0.3333 0.6667 0.2296(17) 0.079(3) 1 0
K4 K0+ 2 a 0. 0. 0.2809(19) 0.074(5) 1 0
loop_
_atom_site_aniso_label
_atom_site_aniso_type_symbol
_atom_site_aniso_U_11
_atom_site_aniso_U_22
_atom_site_aniso_U_33
_atom_site_aniso_U_12
_atom_site_aniso_U_13
_atom_site_aniso_U_23
Bi1 Bi0+ 0.0386(4) 0.0386(4) 0.0344(2) 0.0216(6) -0.0015(3) -0.0015(3)
K1 K0+ 0.099(7) 0.099(7) 0.041(4) 0.069(7) -0.001(4) -0.001(4)
K2 K0+ 0.065(3) 0.065(3) 0.046(4) 0.022(2) 0.011(3) 0.011(3)
K3 K0+ 0.045(2) 0.045(2) 0.147(11) 0.0225(11) 0. 0.
K4 K0+ 0.041(4) 0.041(4) 0.139(16) 0.021(2) 0. 0.
