
#(C) 2017 by FIZ Karlsruhe - Leibniz Institute for Information Infrastructure.  All rights reserved.
data_409488-ICSD
_database_code_ICSD 409488
_audit_creation_date 2002-04-01
_chemical_name_systematic 'Zirconium chromium phosphide (1/5/3)'
_chemical_formula_structural 'Zr Cr5 P3'
_chemical_formula_sum 'Cr5 P3 Zr1'
_chemical_name_structure_type UCr5P3
_exptl_crystal_density_diffrn 6.24
_publ_section_title
'Crystal structure of zirconium chromium phosphide, Zr Cr5 P3'
loop_
_citation_id
_citation_journal_full
_citation_year
_citation_journal_volume
_citation_page_first
_citation_page_last
_citation_journal_id_ASTM
primary 'Zeitschrift fuer Kristallographie - New Crystal Structures' 2000 215
469 470 ZKNSFT
loop_
_publ_author_name
'le Senechal, C.'
'Deputier, S.'
'Guerin, R.'
_cell_length_a 9.465(5)
_cell_length_b 3.638(2)
_cell_length_c 6.983(2)
_cell_angle_alpha 90.
_cell_angle_beta 100.55(5)
_cell_angle_gamma 90.
_cell_volume 236.39
_cell_formula_units_Z 2
_symmetry_space_group_name_H-M 'P 1 21/m 1'
_symmetry_Int_Tables_number 11
_refine_ls_R_factor_all 0.0353
loop_
_symmetry_equiv_pos_site_id
_symmetry_equiv_pos_as_xyz
1 'x, -y+1/2, z'
2 '-x, -y, -z'
3 '-x, y+1/2, -z'
4 'x, y, z'
loop_
_atom_type_symbol
_atom_type_oxidation_number
Zr0+ 0
Cr0+ 0
P0+ 0
loop_
_atom_site_label
_atom_site_type_symbol
_atom_site_symmetry_multiplicity
_atom_site_Wyckoff_symbol
_atom_site_fract_x
_atom_site_fract_y
_atom_site_fract_z
_atom_site_B_iso_or_equiv
_atom_site_occupancy
_atom_site_attached_hydrogens
Zr1 Zr0+ 2 e 0.22122(4) 0.25 0.80787(6) . 1. 0
Cr1 Cr0+ 2 e 0.50575(8) 0.25 0.12861(1) . 1. 0
Cr2 Cr0+ 2 e 0.27457(8) 0.25 0.31581(1) . 1. 0
Cr3 Cr0+ 2 e 0.91950(8) 0.25 0.54156(1) . 1. 0
Cr4 Cr0+ 2 e 0.91572(8) 0.25 0.91649(1) . 1. 0
Cr5 Cr0+ 2 e 0.49228(8) 0.25 0.62142(1) . 1. 0
P1 P0+ 2 e 0.67414(1) 0.25 0.4292(2) . 1. 0
P2 P0+ 2 e 0.00864(1) 0.25 0.2501(2) . 1. 0
P3 P0+ 2 e 0.66854(1) 0.25 0.9070(2) . 1. 0
loop_
_atom_site_aniso_label
_atom_site_aniso_type_symbol
_atom_site_aniso_U_11
_atom_site_aniso_U_22
_atom_site_aniso_U_33
_atom_site_aniso_U_12
_atom_site_aniso_U_13
_atom_site_aniso_U_23
Zr1 Zr0+ 0.0051(2) 0.0055(2) 0.0070(2) 0 0.00119(1) 0
Cr1 Cr0+ 0.0034(3) 0.0102(3) 0.0135(3) 0 0.0014(2) 0
Cr2 Cr0+ 0.0046(3) 0.0059(3) 0.0080(3) 0 0.0010(2) 0
Cr3 Cr0+ 0.0051(3) 0.0071(3) 0.0049(3) 0 0.0002(2) 0
Cr4 Cr0+ 0.0048(3) 0.0076(3) 0.0050(3) 0 0.0016(2) 0
Cr5 Cr0+ 0.0047(3) 0.0082(3) 0.0131(3) 0 0.0008(2) 0
P1 P0+ 0.0043(4) 0.0060(5) 0.0075(4) 0 0.0010(3) 0
P2 P0+ 0.0053(4) 0.0059(5) 0.0067(4) 0 0.0008(3) 0
P3 P0+ 0.0051(4) 0.0063(5) 0.0076(4) 0 0.0009(3) 0
#End of TTdata_409488-ICSD