
#(C) 2017 by FIZ Karlsruhe - Leibniz Institute for Information Infrastructure.  All rights reserved.
data_409561-ICSD
_database_code_ICSD 409561
_audit_creation_date 2002-10-01
_chemical_name_systematic 'Lanthanum gallium iodide (3/1/3)'
_chemical_formula_structural 'La3 Ga I3'
_chemical_formula_sum 'Ga1 I3 La3'
_chemical_name_structure_type Ca3PI3
_exptl_crystal_density_diffrn 5.67
_publ_section_title 'Crystal structure of galotrilanthanum triiodide, La3 Ga I3'
loop_
_citation_id
_citation_journal_full
_citation_year
_citation_journal_volume
_citation_page_first
_citation_page_last
_citation_journal_id_ASTM
primary 'Zeitschrift fuer Kristallographie - New Crystal Structures' 2001 216
495 496 ZKNSFT
loop_
_publ_author_name
'Zheng, C.'
'Mattausch, H.J.'
'Simon, A.'
_cell_length_a 12.666(2)
_cell_length_b 12.666(2)
_cell_length_c 12.666(2)
_cell_angle_alpha 90.
_cell_angle_beta 90.
_cell_angle_gamma 90.
_cell_volume 2031.98
_cell_formula_units_Z 8
_symmetry_space_group_name_H-M 'I 41 3 2'
_symmetry_Int_Tables_number 214
_refine_ls_R_factor_all 0.068
loop_
_symmetry_equiv_pos_site_id
_symmetry_equiv_pos_as_xyz
1 'y+1/4, x+3/4, -z+3/4'
2 '-y+3/4, x+1/4, z+3/4'
3 'y+3/4, -x+3/4, z+1/4'
4 '-y+1/4, -x+1/4, -z+1/4'
5 'z+1/2, -x+1/2, -y'
6 '-z+1/2, -x, y+1/2'
7 '-z, x+1/2, -y+1/2'
8 'z, x, y'
9 '-z+3/4, y+1/4, x+3/4'
10 'z+3/4, -y+3/4, x+1/4'
11 'z+1/4, y+3/4, -x+3/4'
12 '-z+1/4, -y+1/4, -x+1/4'
13 '-y, z+1/2, -x+1/2'
14 'y+1/2, -z+1/2, -x'
15 '-y+1/2, -z, x+1/2'
16 'y, z, x'
17 'x+3/4, -z+3/4, y+1/4'
18 'x+1/4, z+3/4, -y+3/4'
19 '-x+3/4, z+1/4, y+3/4'
20 '-x+1/4, -z+1/4, -y+1/4'
21 '-x+1/2, -y, z+1/2'
22 '-x, y+1/2, -z+1/2'
23 'x+1/2, -y+1/2, -z'
24 'x, y, z'
25 'y+3/4, x+1/4, -z+1/4'
26 '-y+1/4, x+3/4, z+1/4'
27 'y+1/4, -x+1/4, z+3/4'
28 '-y+3/4, -x+3/4, -z+3/4'
29 'z, -x, -y+1/2'
30 '-z, -x+1/2, y'
31 '-z+1/2, x, -y'
32 'z+1/2, x+1/2, y+1/2'
33 '-z+1/4, y+3/4, x+1/4'
34 'z+1/4, -y+1/4, x+3/4'
35 'z+3/4, y+1/4, -x+1/4'
36 '-z+3/4, -y+3/4, -x+3/4'
37 '-y+1/2, z, -x'
38 'y, -z, -x+1/2'
39 '-y, -z+1/2, x'
40 'y+1/2, z+1/2, x+1/2'
41 'x+1/4, -z+1/4, y+3/4'
42 'x+3/4, z+1/4, -y+1/4'
43 '-x+1/4, z+3/4, y+1/4'
44 '-x+3/4, -z+3/4, -y+3/4'
45 '-x, -y+1/2, z'
46 '-x+1/2, y, -z'
47 'x, -y, -z+1/2'
48 'x+1/2, y+1/2, z+1/2'
loop_
_atom_type_symbol
_atom_type_oxidation_number
La0+ 0
I0+ 0
Ga0+ 0
loop_
_atom_site_label
_atom_site_type_symbol
_atom_site_symmetry_multiplicity
_atom_site_Wyckoff_symbol
_atom_site_fract_x
_atom_site_fract_y
_atom_site_fract_z
_atom_site_B_iso_or_equiv
_atom_site_occupancy
_atom_site_attached_hydrogens
La1 La0+ 24 h 0.125 0.61330(13) 0.63670(13) . 1. 0
I1 I0+ 24 g 0.125 0.88532(14) 0.13532(14) . 1. 0
Ga1 Ga0+ 8 b 0.875 0.875 0.875 . 1. 0
loop_
_atom_site_aniso_label
_atom_site_aniso_type_symbol
_atom_site_aniso_U_11
_atom_site_aniso_U_22
_atom_site_aniso_U_33
_atom_site_aniso_U_12
_atom_site_aniso_U_13
_atom_site_aniso_U_23
La1 La0+ 0.0343(14) 0.0437(11) 0.0437(11) -.0079(6) -.0079(6) -.0053(11)
I1 I0+ 0.0354(15) 0.0428(12) 0.0428(12) -.0015(7) 0.0015(7) -.0079(18)
Ga1 Ga0+ 0.0336(16) 0.0336(16) 0.0336(16) -.005(2) -.005(2) -.005(2)
#End of TTdata_409561-ICSD