
#(C) 2017 by FIZ Karlsruhe - Leibniz Institute for Information Infrastructure.  All rights reserved.
data_409756-ICSD
_database_code_ICSD 409756
_audit_creation_date 2004-10-01
_audit_update_record 2006-10-01
_chemical_name_systematic 'Bismuth zirconium (1/1)'
_chemical_formula_structural 'Bi Zr'
_chemical_formula_sum 'Bi1 Zr1'
_chemical_name_structure_type ZrSb
_exptl_crystal_density_diffrn 10.05
_publ_section_title
'Refinement of the crystal structure of zirconium monobismuthide, Zr Bi'
loop_
_citation_id
_citation_journal_full
_citation_year
_citation_journal_volume
_citation_page_first
_citation_page_last
_citation_journal_id_ASTM
primary 'Zeitschrift fuer Kristallographie - New Crystal Structures' 2004 219 3
4 ZKNSFT
loop_
_publ_author_name
'Bostroem, M.'
'Prots', Yu.'
'Grin', Yu.'
_cell_length_a 3.858(2)
_cell_length_b 10.770(2)
_cell_length_c 14.325(3)
_cell_angle_alpha 90.
_cell_angle_beta 90.
_cell_angle_gamma 90.
_cell_volume 595.21
_cell_formula_units_Z 12
_symmetry_space_group_name_H-M 'C m c m'
_symmetry_Int_Tables_number 63
_refine_ls_R_factor_all 0.0313
loop_
_symmetry_equiv_pos_site_id
_symmetry_equiv_pos_as_xyz
1 '-x, y, -z+1/2'
2 '-x, -y, z+1/2'
3 '-x, y, z'
4 '-x, -y, -z'
5 'x, -y, z+1/2'
6 'x, y, -z+1/2'
7 'x, -y, -z'
8 'x, y, z'
9 '-x+1/2, y+1/2, -z+1/2'
10 '-x+1/2, -y+1/2, z+1/2'
11 '-x+1/2, y+1/2, z'
12 '-x+1/2, -y+1/2, -z'
13 'x+1/2, -y+1/2, z+1/2'
14 'x+1/2, y+1/2, -z+1/2'
15 'x+1/2, -y+1/2, -z'
16 'x+1/2, y+1/2, z'
loop_
_atom_type_symbol
_atom_type_oxidation_number
Zr0+ 0
Bi0+ 0
loop_
_atom_site_label
_atom_site_type_symbol
_atom_site_symmetry_multiplicity
_atom_site_Wyckoff_symbol
_atom_site_fract_x
_atom_site_fract_y
_atom_site_fract_z
_atom_site_B_iso_or_equiv
_atom_site_occupancy
_atom_site_attached_hydrogens
Zr1 Zr0+ 8 f 0 0.07187(16) 0.10960(12) . 1. 0
Zr2 Zr0+ 4 c 0 0.3912(2) 0.25 . 1. 0
Bi1 Bi0+ 4 c 0 0.67745(9) 0.25 . 1. 0
Bi2 Bi0+ 8 f 0 0.64055(6) 0.54941(5) . 1. 0
loop_
_atom_site_aniso_label
_atom_site_aniso_type_symbol
_atom_site_aniso_U_11
_atom_site_aniso_U_22
_atom_site_aniso_U_33
_atom_site_aniso_U_12
_atom_site_aniso_U_13
_atom_site_aniso_U_23
Zr1 Zr0+ 0.0100(7) 0.0092(7) 0.0055(7) 0 0 0.0002(5)
Zr2 Zr0+ 0.0162(12) 0.0096(10) 0.0036(9) 0 0 0
Bi1 Bi0+ 0.0099(4) 0.0113(4) 0.0060(4) 0 0 0
Bi2 Bi0+ 0.0108(3) 0.0089(3) 0.0050(3) 0 0 0.0000(2)
#End of TTdata_409756-ICSD