
data_409793-ICSD
_database_code_ICSD 409793
_audit_creation_date 2005-10-01
_chemical_name_systematic 'Potassium disilver arsenate(V)'
_chemical_formula_structural 'K Ag2 As O4'
_chemical_formula_sum 'Ag2 As1 K1 O4'
_chemical_name_structure_type K3VO4
_exptl_crystal_density_diffrn 5.3
_cell_length_a 5.9033(8)
_cell_length_b 5.9033(8)
_cell_length_c 7.0816(14)
_cell_angle_alpha 90.
_cell_angle_beta 90.
_cell_angle_gamma 90.
_cell_volume 246.79
_cell_formula_units_Z 2
_symmetry_space_group_name_H-M 'I -4 2 m'
_symmetry_Int_Tables_number 121
_refine_ls_R_factor_all 0.03
loop_
_symmetry_equiv_pos_site_id
_symmetry_equiv_pos_as_xyz
1 '-y, -x, z'
2 'y, x, z'
3 'y, -x, -z'
4 '-y, x, -z'
5 'x, -y, -z'
6 '-x, y, -z'
7 '-x, -y, z'
8 'x, y, z'
9 '-y+1/2, -x+1/2, z+1/2'
10 'y+1/2, x+1/2, z+1/2'
11 'y+1/2, -x+1/2, -z+1/2'
12 '-y+1/2, x+1/2, -z+1/2'
13 'x+1/2, -y+1/2, -z+1/2'
14 '-x+1/2, y+1/2, -z+1/2'
15 '-x+1/2, -y+1/2, z+1/2'
16 'x+1/2, y+1/2, z+1/2'
loop_
_atom_type_symbol
_atom_type_oxidation_number
Ag1+ 1
As5+ 5
K1+ 1
O2- -2
loop_
_atom_site_label
_atom_site_type_symbol
_atom_site_symmetry_multiplicity
_atom_site_Wyckoff_symbol
_atom_site_fract_x
_atom_site_fract_y
_atom_site_fract_z
_atom_site_B_iso_or_equiv
_atom_site_occupancy
_atom_site_attached_hydrogens
Ag1 Ag1+ 4 d 0. 0.5 0.75 0.0308(2) 1 0
As1 As5+ 2 a 0. 0. 0. 0.0105(2) 1 0
K1 K1+ 2 b 0. 0. 0.5 0.0196(3) 1 0
O1 O2- 8 i 0.3325(5) 0.6675(5) 0.3640(6) 0.0213(7) 1 0
loop_
_atom_site_aniso_label
_atom_site_aniso_type_symbol
_atom_site_aniso_U_11
_atom_site_aniso_U_22
_atom_site_aniso_U_33
_atom_site_aniso_U_12
_atom_site_aniso_U_13
_atom_site_aniso_U_23
Ag1 Ag1+ 0.0137(2) 0.0137(2) 0.0649(5) 0. 0. 0.
As1 As5+ 0.0092(2) 0.0092(2) 0.0130(3) 0. 0. 0.
K1 K1+ 0.0221(5) 0.0221(5) 0.0145(6) 0. 0. 0.
O1 O2- 0.0175(11) 0.0175(11) 0.0287(18) -0.0038(14) -0.0093(10) 0.0093(10)
