
#(C) 2017 by FIZ Karlsruhe - Leibniz Institute for Information Infrastructure.  All rights reserved.
data_409815-ICSD
_database_code_ICSD 409815
_audit_creation_date 2005-10-01
_audit_update_record 2016-02-01
_chemical_name_systematic 'Tetracesium bis(tetraselenidosilicate)'
_chemical_formula_structural 'Cs4 (Si Se4)2'
_chemical_formula_sum 'Cs4 Se8 Si2'
_chemical_name_structure_type Cs2GeSe4
_exptl_crystal_density_diffrn 4.12
_cell_measurement_temperature 298.
_publ_section_title
'Crystal structure of tetracesium octaselenidodisilicate, Cs4 Si2 Se8'
loop_
_citation_id
_citation_journal_full
_citation_year
_citation_journal_volume
_citation_page_first
_citation_page_last
_citation_journal_id_ASTM
primary 'Zeitschrift fuer Kristallographie - New Crystal Structures' 2005 220 12
12 ZKNSFT
loop_
_publ_author_name
'Chan, B.-C.'
'Feng, P.L.'
'Hulvey, Z.'
'Polykova, L.'
'Hess, R.F.'
'Abney, K.D.'
'Dorhout, P.K.'
_cell_length_a 15.148(3)
_cell_length_b 7.5988(14)
_cell_length_c 10.0568(18)
_cell_angle_alpha 90.
_cell_angle_beta 121.833(2)
_cell_angle_gamma 90.
_cell_volume 983.49
_cell_formula_units_Z 2
_symmetry_space_group_name_H-M 'C 1 2/m 1'
_symmetry_Int_Tables_number 12
_refine_ls_R_factor_all 0.0301
loop_
_symmetry_equiv_pos_site_id
_symmetry_equiv_pos_as_xyz
1 '-x, y, -z'
2 '-x, -y, -z'
3 'x, -y, z'
4 'x, y, z'
5 '-x+1/2, y+1/2, -z'
6 '-x+1/2, -y+1/2, -z'
7 'x+1/2, -y+1/2, z'
8 'x+1/2, y+1/2, z'
loop_
_atom_type_symbol
_atom_type_oxidation_number
Cs1+ 1
Se2- -2
Se1- -1
Si4+ 4
loop_
_atom_site_label
_atom_site_type_symbol
_atom_site_symmetry_multiplicity
_atom_site_Wyckoff_symbol
_atom_site_fract_x
_atom_site_fract_y
_atom_site_fract_z
_atom_site_B_iso_or_equiv
_atom_site_occupancy
_atom_site_attached_hydrogens
Cs1 Cs1+ 4 i 0.41163(5) 0. 0.14620(8) 0.0321(2) 1 0
Cs2 Cs1+ 4 i 0.15960(5) 0. 0.28145(8) 0.0320(2) 1 0
Se1 Se2- 4 i 0.31214(8) 0. -0.26844(13) 0.0315(3) 1 0
Se2 Se2- 4 i 0.12580(8) 0. -0.11078(13) 0.0290(3) 1 0
Se3 Se1- 8 j 0.08779(6) 0.24308(8) -0.46476(9) 0.0256(3) 1 0
Si1 Si4+ 4 i 0.1553(2) 0. -0.3018(3) 0.0223(7) 1 0
loop_
_atom_site_aniso_label
_atom_site_aniso_type_symbol
_atom_site_aniso_U_11
_atom_site_aniso_U_22
_atom_site_aniso_U_33
_atom_site_aniso_U_12
_atom_site_aniso_U_13
_atom_site_aniso_U_23
Cs1 Cs1+ 0.0321(4) 0.0352(4) 0.0277(4) 0. 0.0150(3) 0.
Cs2 Cs1+ 0.0325(4) 0.0347(4) 0.0330(4) 0. 0.0201(3) 0.
Se1 Se2- 0.0237(6) 0.0399(7) 0.0328(7) 0. 0.0160(5) 0.
Se2 Se2- 0.0296(6) 0.0365(6) 0.0247(6) 0. 0.0169(5) 0.
Se3 Se1- 0.0267(4) 0.0229(5) 0.0281(5) -0.0026(3) 0.0150(4) 0.0008(3)
Si1 Si4+ 0.0232(14) 0.0220(14) 0.0219(15) 0. 0.0119(12) 0.
#End of TTdata_409815-ICSD