
#(C) 2017 by FIZ Karlsruhe - Leibniz Institute for Information Infrastructure.  All rights reserved.
data_409926-ICSD
_database_code_ICSD 409926
_audit_creation_date 2008-08-01
_chemical_name_systematic 'Titanium palladium germanide (1/1/1) - LT'
_chemical_formula_structural 'Ti Pd Ge'
_chemical_formula_sum 'Ge1 Pd1 Ti1'
_chemical_name_structure_type TiNiSi-MgSrSi
_exptl_crystal_density_diffrn 8.14
_cell_measurement_temperature 293.
_publ_section_title

;
Crystal structures of titanium palladium germanium, Ti Pd Ge, two polymorphic
modifications
;
loop_
_citation_id
_citation_journal_full
_citation_year
_citation_journal_volume
_citation_page_first
_citation_page_last
_citation_journal_id_ASTM
primary 'Zeitschrift fuer Kristallographie - New Crystal Structures' 2007 222
173 174 ZKNSFT
loop_
_publ_author_name
'Demchyna, R.'
'Prots', Yu.'
'Schwarz, U.'
_cell_length_a 6.3707(7)
_cell_length_b 3.8574(3)
_cell_length_c 7.5372(6)
_cell_angle_alpha 90
_cell_angle_beta 90
_cell_angle_gamma 90
_cell_volume 185.22
_cell_formula_units_Z 4
_symmetry_space_group_name_H-M 'P n m a'
_symmetry_Int_Tables_number 62
_refine_ls_R_factor_all 0.021
loop_
_symmetry_equiv_pos_site_id
_symmetry_equiv_pos_as_xyz
1 'x+1/2, y, -z+1/2'
2 'x, -y+1/2, z'
3 '-x+1/2, y+1/2, z+1/2'
4 '-x, -y, -z'
5 '-x+1/2, -y, z+1/2'
6 '-x, y+1/2, -z'
7 'x+1/2, -y+1/2, -z+1/2'
8 'x, y, z'
loop_
_atom_type_symbol
_atom_type_oxidation_number
Ti0+ 0
Pd0+ 0
Ge0+ 0
loop_
_atom_site_label
_atom_site_type_symbol
_atom_site_symmetry_multiplicity
_atom_site_Wyckoff_symbol
_atom_site_fract_x
_atom_site_fract_y
_atom_site_fract_z
_atom_site_B_iso_or_equiv
_atom_site_occupancy
_atom_site_attached_hydrogens
Ti1 Ti0+ 4 c 0.5340(2) 0.25 0.6833(2) 0.0067(3) 1. 0
Pd1 Pd0+ 4 c 0.64483(8) 0.25 0.06132(7) 0.00657(1) 1. 0
Ge1 Ge0+ 4 c 0.74564(1) 0.25 0.37603(1) 0.0065(2) 1. 0
loop_
_atom_site_aniso_label
_atom_site_aniso_type_symbol
_atom_site_aniso_U_11
_atom_site_aniso_U_22
_atom_site_aniso_U_33
_atom_site_aniso_U_12
_atom_site_aniso_U_13
_atom_site_aniso_U_23
Ti1 Ti0+ 0.0064(5) 0.0068(5) 0.0069(5) 0 0.0000(4) 0
Pd1 Pd0+ 0.0067(2) 0.0067(2) 0.0064(2) 0 -0.0002(2) 0
Ge1 Ge0+ 0.0069(3) 0.0060(3) 0.0067(3) 0 -0.0005(2) 0
#End of TTdata_409926-ICSD