
data_4102-ICSD
_database_code_ICSD 4102
_audit_creation_date 1980-01-01
_audit_update_record 1990-12-21
_chemical_name_systematic 'Cadmium tetrakis(thiocyanato)mercurate'
_chemical_formula_structural 'Cd (Hg (S C N)4)'
_chemical_formula_sum 'C4 Cd1 Hg1 N4 S4'
_chemical_name_structure_type CoHg(SCN)4
_exptl_crystal_density_diffrn 3.23
_cell_length_a 11.49(2)
_cell_length_b 11.49(2)
_cell_length_c 4.25(2)
_cell_angle_alpha 90.
_cell_angle_beta 90.
_cell_angle_gamma 90.
_cell_volume 561.09
_cell_formula_units_Z 2
_symmetry_space_group_name_H-M 'I -4'
_symmetry_Int_Tables_number 82
_refine_ls_R_factor_all 0.137
loop_
_symmetry_equiv_pos_site_id
_symmetry_equiv_pos_as_xyz
1 '-y, x, -z'
2 'y, -x, -z'
3 '-x, -y, z'
4 'x, y, z'
5 '-y+1/2, x+1/2, -z+1/2'
6 'y+1/2, -x+1/2, -z+1/2'
7 '-x+1/2, -y+1/2, z+1/2'
8 'x+1/2, y+1/2, z+1/2'
loop_
_atom_type_symbol
_atom_type_oxidation_number
Hg2+ 2
Cd2+ 2
S2- -2
N3- -3
C4+ 4
loop_
_atom_site_label
_atom_site_type_symbol
_atom_site_symmetry_multiplicity
_atom_site_Wyckoff_symbol
_atom_site_fract_x
_atom_site_fract_y
_atom_site_fract_z
_atom_site_B_iso_or_equiv
_atom_site_occupancy
_atom_site_attached_hydrogens
Hg1 Hg2+ 2 a 0 0 0 1.59 1. 0
Cd1 Cd2+ 2 d 0.5 0 0.25 1.48 1. 0
S1 S2- 8 g 0.130(1) 0.142(1) 0.311(3) 1.74 1. 0
N1 N3- 8 g 0.058(3) 0.352(3) 0.069(5) 1.73 1. 0
C1 C4+ 8 g 0.072(2) 0.262(2) 0.223(7) 2.46 1. 0
