
#(C) 2017 by FIZ Karlsruhe - Leibniz Institute for Information Infrastructure.  All rights reserved.
data_410890-ICSD
_database_code_ICSD 410890
_audit_creation_date 2003-10-01
_chemical_name_systematic 'Calcium palladium indium (1/1/4)'
_chemical_formula_structural 'Ca Pd In4'
_chemical_formula_sum 'Ca1 In4 Pd1'
_chemical_name_structure_type Al4NiY
_exptl_crystal_density_diffrn 7.17
_publ_section_title
'Distorted bcc indium cubes as structural motifs in CaTIn4 (T = Rh, Pd, Ir)'
loop_
_citation_id
_citation_journal_full
_citation_year
_citation_journal_volume
_citation_page_first
_citation_page_last
_citation_journal_id_ASTM
primary 'Chemistry - A European Journal' 2000 6 600 607 CEUJED
loop_
_publ_author_name
'Hoffmann, R.D.'
'Poettgen, R.'
_cell_length_a 4.467(3)
_cell_length_b 16.65(1)
_cell_length_c 7.543(5)
_cell_angle_alpha 90.
_cell_angle_beta 90.
_cell_angle_gamma 90.
_cell_volume 561.01
_cell_formula_units_Z 4
_symmetry_space_group_name_H-M 'C m c m'
_symmetry_Int_Tables_number 63
_refine_ls_R_factor_all 0.03
loop_
_symmetry_equiv_pos_site_id
_symmetry_equiv_pos_as_xyz
1 '-x, y, -z+1/2'
2 '-x, -y, z+1/2'
3 '-x, y, z'
4 '-x, -y, -z'
5 'x, -y, z+1/2'
6 'x, y, -z+1/2'
7 'x, -y, -z'
8 'x, y, z'
9 '-x+1/2, y+1/2, -z+1/2'
10 '-x+1/2, -y+1/2, z+1/2'
11 '-x+1/2, y+1/2, z'
12 '-x+1/2, -y+1/2, -z'
13 'x+1/2, -y+1/2, z+1/2'
14 'x+1/2, y+1/2, -z+1/2'
15 'x+1/2, -y+1/2, -z'
16 'x+1/2, y+1/2, z'
loop_
_atom_type_symbol
_atom_type_oxidation_number
Ca0+ 0
Pd0+ 0
In0+ 0
loop_
_atom_site_label
_atom_site_type_symbol
_atom_site_symmetry_multiplicity
_atom_site_Wyckoff_symbol
_atom_site_fract_x
_atom_site_fract_y
_atom_site_fract_z
_atom_site_B_iso_or_equiv
_atom_site_occupancy
_atom_site_attached_hydrogens
Ca1 Ca0+ 4 c 0 0.12770(9) 0.25 . 1. 0
Pd1 Pd0+ 4 c 0 0.77253(3) 0.25 . 1. 0
In1 In0+ 8 f 0 0.31698(2) 0.05040(5) . 1. 0
In2 In0+ 4 c 0 0.93358(3) 0.25 . 1. 0
In3 In0+ 4 b 0 0.5 0 . 1. 0
loop_
_atom_site_aniso_label
_atom_site_aniso_type_symbol
_atom_site_aniso_U_11
_atom_site_aniso_U_22
_atom_site_aniso_U_33
_atom_site_aniso_U_12
_atom_site_aniso_U_13
_atom_site_aniso_U_23
Ca1 Ca0+ 0.0134(6) 0.0099(6) 0.0183(6) 0 0 0
Pd1 Pd0+ 0.0105(2) 0.0095(2) 0.0112(2) 0 0 0
In1 In0+ 0.01110(16) 0.01108(17) 0.00918(14) 0 0 -0.00017(10)
In2 In0+ 0.0162(3) 0.0090(2) 0.0222(3) 0 0 0
In3 In0+ 0.0193(3) 0.0106(2) 0.0252(3) 0 0 0.00241(19)
#End of TTdata_410890-ICSD