
#(C) 2017 by FIZ Karlsruhe - Leibniz Institute for Information Infrastructure.  All rights reserved.
data_410902-ICSD
_database_code_ICSD 410902
_audit_creation_date 2005-04-01
_chemical_name_systematic 'Titanium stannide (2/3)'
_chemical_formula_structural 'Ti2 Sn3'
_chemical_formula_sum 'Sn3 Ti2'
_chemical_name_structure_type GaSn2V2
_exptl_crystal_density_diffrn 7.18
_publ_section_title

;
Ti2 Sn3: eine neue binaere intermetallische Phase, hergestellt durch
chemischen Transport bei moderater Temperatur
;
loop_
_citation_id
_citation_journal_full
_citation_year
_citation_journal_volume
_citation_page_first
_citation_page_last
_citation_journal_id_ASTM
primary 'Chemistry of Materials' 2000 12 2219 2224 CMATEX
loop_
_publ_author_name
'Kleinke, H.'
'Waldeck, M.'
'Guetlich, P.'
_cell_length_a 5.9556(4)
_cell_length_b 19.964(2)
_cell_length_c 7.0281(5)
_cell_angle_alpha 90.
_cell_angle_beta 90.
_cell_angle_gamma 90.
_cell_volume 835.62
_cell_formula_units_Z 8
_symmetry_space_group_name_H-M 'C m c a'
_symmetry_Int_Tables_number 64
_refine_ls_R_factor_all 0.0183
loop_
_symmetry_equiv_pos_site_id
_symmetry_equiv_pos_as_xyz
1 '-x, -y+1/2, z+1/2'
2 '-x, y+1/2, -z+1/2'
3 '-x, y, z'
4 '-x, -y, -z'
5 'x, y+1/2, -z+1/2'
6 'x, -y+1/2, z+1/2'
7 'x, -y, -z'
8 'x, y, z'
9 '-x+1/2, -y, z+1/2'
10 '-x+1/2, y, -z+1/2'
11 '-x+1/2, y+1/2, z'
12 '-x+1/2, -y+1/2, -z'
13 'x+1/2, y, -z+1/2'
14 'x+1/2, -y, z+1/2'
15 'x+1/2, -y+1/2, -z'
16 'x+1/2, y+1/2, z'
loop_
_atom_type_symbol
_atom_type_oxidation_number
Sn0+ 0
Ti0+ 0
loop_
_atom_site_label
_atom_site_type_symbol
_atom_site_symmetry_multiplicity
_atom_site_Wyckoff_symbol
_atom_site_fract_x
_atom_site_fract_y
_atom_site_fract_z
_atom_site_B_iso_or_equiv
_atom_site_occupancy
_atom_site_attached_hydrogens
Sn1 Sn0+ 8 f 0. 0.22390(1) 0.57434(4) 0.00802(8) 1 0
Sn2 Sn0+ 8 f 0. 0.121389(13) .92675(4) 0.00721(8) 1 0
Sn3 Sn0+ 8 e 0.25 0.020653(12) 0.25 0.00687(8) 1 0
Ti1 Ti0+ 8 f 0. 0.08054(3) 0.54820(9) 0.0057(2) 1 0
Ti2 Ti0+ 8 e 0.25 0.16427(3) 0.25 0.00550(14) 1 0
loop_
_atom_site_aniso_label
_atom_site_aniso_type_symbol
_atom_site_aniso_U_11
_atom_site_aniso_U_22
_atom_site_aniso_U_33
_atom_site_aniso_U_12
_atom_site_aniso_U_13
_atom_site_aniso_U_23
Sn1 Sn0+ 0.0120(2) 0.00453(12) 0.00750(13) 0. 0. 0.00194(9)
Sn2 Sn0+ 0.0098(2) 0.00770(12) 0.00414(12) 0. 0. -0.00147(9)
Sn3 Sn0+ 0.0078(2) 0.00603(11) 0.00674(11) 0. 0.00206(12) 0.
Ti1 Ti0+ 0.0089(5) 0.0043(3) 0.0040(3) 0. 0. 0.0007(2)
Ti2 Ti0+ 0.0081(4) 0.0042(3) 0.0042(3) 0. -0.0008(3) 0.
#End of TTdata_410902-ICSD