
#(C) 2017 by FIZ Karlsruhe - Leibniz Institute for Information Infrastructure.  All rights reserved.
data_411511-ICSD
_database_code_ICSD 411511
_audit_creation_date 2002-10-01
_chemical_name_systematic 'Nitrosyl chloride'
_chemical_formula_structural '(N O) Cl'
_chemical_formula_sum 'Cl1 N1 O1'
_exptl_crystal_density_diffrn 1.8
_cell_measurement_temperature 153.
_publ_section_title
'The structures of nitrosyl fluoride and nitrosyl chloride in the solid state'
loop_
_citation_id
_citation_journal_full
_citation_year
_citation_journal_volume
_citation_page_first
_citation_page_last
_citation_journal_id_ASTM
primary 'Zeitschrift fuer Anorganische und Allgemeine Chemie (1950) (DE)' 2001
627 234 237 ZAACAB
loop_
_publ_author_name
'Ellern, A.'
'Seppelt, K.'
_cell_length_a 10.840(2)
_cell_length_b 5.4348(11)
_cell_length_c 4.0933(8)
_cell_angle_alpha 90.
_cell_angle_beta 90.
_cell_angle_gamma 90.
_cell_volume 241.15
_cell_formula_units_Z 4
_symmetry_space_group_name_H-M 'P n m a'
_symmetry_Int_Tables_number 62
_refine_ls_R_factor_all 0.0573
loop_
_symmetry_equiv_pos_site_id
_symmetry_equiv_pos_as_xyz
1 'x+1/2, y, -z+1/2'
2 'x, -y+1/2, z'
3 '-x+1/2, y+1/2, z+1/2'
4 '-x, -y, -z'
5 '-x+1/2, -y, z+1/2'
6 '-x, y+1/2, -z'
7 'x+1/2, -y+1/2, -z+1/2'
8 'x, y, z'
loop_
_atom_type_symbol
_atom_type_oxidation_number
Cl1- -1
N3+ 3
O2- -2
loop_
_atom_site_label
_atom_site_type_symbol
_atom_site_symmetry_multiplicity
_atom_site_Wyckoff_symbol
_atom_site_fract_x
_atom_site_fract_y
_atom_site_fract_z
_atom_site_B_iso_or_equiv
_atom_site_occupancy
_atom_site_attached_hydrogens
Cl1 Cl1- 4 c 0.85549(6) 0.75 0.47395(17) . 1. 0
N1 N3+ 4 c 0.6604(3) 0.75 0.3372(7) . 1. 0
O1 O2- 4 c 0.6036(3) 0.75 0.5454(7) . 1. 0
loop_
_atom_site_aniso_label
_atom_site_aniso_type_symbol
_atom_site_aniso_U_11
_atom_site_aniso_U_22
_atom_site_aniso_U_33
_atom_site_aniso_U_12
_atom_site_aniso_U_13
_atom_site_aniso_U_23
Cl1 Cl1- 0.0270(3) 0.0324(4) 0.0386(4) 0 0.0004(2) 0
N1 N3+ 0.0521(14) 0.0317(11) 0.0401(13) 0 -.0129(11) 0
O1 O2- 0.0440(13) 0.0416(13) 0.0586(15) 0 0.0093(11) 0
#End of TTdata_411511-ICSD