
#(C) 2017 by FIZ Karlsruhe - Leibniz Institute for Information Infrastructure.  All rights reserved.
data_411625-ICSD
_database_code_ICSD 411625
_audit_creation_date 2002-10-01
_chemical_name_systematic 'Niobium boride carbide (7/6/3)'
_chemical_formula_structural 'Nb7 B6 C3'
_chemical_formula_sum 'C3 B6 Nb7'
_exptl_crystal_density_diffrn 7.4
_publ_section_title
'Crystal structures from a building set: the first boridecarbides of niobium'
loop_
_citation_id
_citation_journal_full
_citation_year
_citation_journal_volume
_citation_page_first
_citation_page_last
_citation_journal_id_ASTM
primary 'Angewandte Chemie. International Edition' 2001 40 1445 1447 ACIEF5
loop_
_publ_author_name
'Hillebrecht, H.'
'Gebhardt, K.'
_cell_length_a 3.1341(2)
_cell_length_b 33.161(2)
_cell_length_c 3.2428(3)
_cell_angle_alpha 90.
_cell_angle_beta 90.
_cell_angle_gamma 90.
_cell_volume 337.02
_cell_formula_units_Z 2
_symmetry_space_group_name_H-M 'C m m m'
_symmetry_Int_Tables_number 65
_refine_ls_R_factor_all 0.0431
loop_
_symmetry_equiv_pos_site_id
_symmetry_equiv_pos_as_xyz
1 'x, -y, z'
2 '-x, y, z'
3 'x, y, -z'
4 '-x, -y, -z'
5 '-x, y, -z'
6 'x, -y, -z'
7 '-x, -y, z'
8 'x, y, z'
9 'x+1/2, -y+1/2, z'
10 '-x+1/2, y+1/2, z'
11 'x+1/2, y+1/2, -z'
12 '-x+1/2, -y+1/2, -z'
13 '-x+1/2, y+1/2, -z'
14 'x+1/2, -y+1/2, -z'
15 '-x+1/2, -y+1/2, z'
16 'x+1/2, y+1/2, z'
loop_
_atom_type_symbol
_atom_type_oxidation_number
Nb0+ 0
C0+ 0
B0+ 0
loop_
_atom_site_label
_atom_site_type_symbol
_atom_site_symmetry_multiplicity
_atom_site_Wyckoff_symbol
_atom_site_fract_x
_atom_site_fract_y
_atom_site_fract_z
_atom_site_B_iso_or_equiv
_atom_site_occupancy
_atom_site_attached_hydrogens
Nb1 Nb0+ 2 a 0 0 0 . 1. 0
Nb2 Nb0+ 4 i 0 0.130500(15) 0 . 1. 0
Nb3 Nb0+ 4 j 0.5 0.067360(15) 0.5 . 1. 0
Nb4 Nb0+ 4 i 0.5 0.209420(14) 0 . 1. 0
C1 C0+ 2 c 0.5 0 0.5 . 1. 0
C2 C0+ 4 i 0 0.0657(2) 0 . 1. 0
B1 B0+ 4 j 0 0.1814(2) 0.5 . 1. 0
B2 B0+ 4 j 0.5 0.2634(2) 0.5 . 1. 0
B3 B0+ 4 j 0.5 0.1520(2) 0.5 . 1. 0
loop_
_atom_site_aniso_label
_atom_site_aniso_type_symbol
_atom_site_aniso_U_11
_atom_site_aniso_U_22
_atom_site_aniso_U_33
_atom_site_aniso_U_12
_atom_site_aniso_U_13
_atom_site_aniso_U_23
Nb1 Nb0+ 0.0123(3) 0.0109(2) 0.0137(3) 0 0 0
Nb2 Nb0+ 0.0116(2) 0.0105(2) 0.0125(2) 0 0 0
Nb3 Nb0+ 0.0122(2) 0.0114(2) 0.0129(2) 0 0 0
Nb4 Nb0+ 0.0125(2) 0.0111(2) 0.0136(2) 0 0 0
C1 C0+ 0.011(2) 0.012(2) 0.012(2) 0 0 0
C2 C0+ 0.012(2) 0.014(2) 0.014(2) 0 0 0
B1 B0+ 0.016(2) 0.010(2) 0.019(3) 0 0 0
B2 B0+ 0.013(2) 0.013(2) 0.012(2) 0 0 0
B3 B0+ 0.015(2) 0.015(2) 0.019(3) 0 0 0
#End of TTdata_411625-ICSD