
#(C) 2017 by FIZ Karlsruhe - Leibniz Institute for Information Infrastructure.  All rights reserved.
data_411622-ICSD
_database_code_ICSD 411622
_audit_creation_date 2002-10-01
_chemical_name_systematic 'Niobium boride carbide (3/3/1)'
_chemical_formula_structural 'Nb3 B3 C'
_chemical_formula_sum 'C1 B3 Nb3'
_chemical_name_structure_type EuMg3Ge3
_exptl_crystal_density_diffrn 7.32
_publ_section_title
'Crystal structures from a building set: the first boridecarbides of niobium'
loop_
_citation_id
_citation_journal_full
_citation_year
_citation_journal_volume
_citation_page_first
_citation_page_last
_citation_journal_id_ASTM
primary 'Angewandte Chemie. International Edition' 2001 40 1445 1447 ACIEF5
loop_
_publ_author_name
'Hillebrecht, H.'
'Gebhardt, K.'
_cell_length_a 3.2647(3)
_cell_length_b 28.7100(20)
_cell_length_c 3.1285(2)
_cell_angle_alpha 90.
_cell_angle_beta 90.
_cell_angle_gamma 90.
_cell_volume 293.23
_cell_formula_units_Z 4
_symmetry_space_group_name_H-M 'C m c m'
_symmetry_Int_Tables_number 63
_refine_ls_R_factor_all 0.0367
loop_
_symmetry_equiv_pos_site_id
_symmetry_equiv_pos_as_xyz
1 '-x, y, -z+1/2'
2 '-x, -y, z+1/2'
3 '-x, y, z'
4 '-x, -y, -z'
5 'x, -y, z+1/2'
6 'x, y, -z+1/2'
7 'x, -y, -z'
8 'x, y, z'
9 '-x+1/2, y+1/2, -z+1/2'
10 '-x+1/2, -y+1/2, z+1/2'
11 '-x+1/2, y+1/2, z'
12 '-x+1/2, -y+1/2, -z'
13 'x+1/2, -y+1/2, z+1/2'
14 'x+1/2, y+1/2, -z+1/2'
15 'x+1/2, -y+1/2, -z'
16 'x+1/2, y+1/2, z'
loop_
_atom_type_symbol
_atom_type_oxidation_number
Nb0+ 0
C0+ 0
B0+ 0
loop_
_atom_site_label
_atom_site_type_symbol
_atom_site_symmetry_multiplicity
_atom_site_Wyckoff_symbol
_atom_site_fract_x
_atom_site_fract_y
_atom_site_fract_z
_atom_site_B_iso_or_equiv
_atom_site_occupancy
_atom_site_attached_hydrogens
Nb1 Nb0+ 4 c 0 0.63817(2) 0.75 . 1. 0
Nb2 Nb0+ 4 c 0.5 0.71243(2) 0.25 . 1. 0
Nb3 Nb0+ 4 c 0 0.54690(2) 0.25 . 1. 0
C1 C0+ 4 c 0 0.7122(2) 0.75 . 1. 0
B1 B0+ 4 c 0.5 0.4209(2) 0.25 . 1. 0
B2 B0+ 4 c 0.5 0.6129(2) 0.25 . 1. 0
B3 B0+ 4 c 0.5 0.4844(2) 0.25 . 1. 0
loop_
_atom_site_aniso_label
_atom_site_aniso_type_symbol
_atom_site_aniso_U_11
_atom_site_aniso_U_22
_atom_site_aniso_U_33
_atom_site_aniso_U_12
_atom_site_aniso_U_13
_atom_site_aniso_U_23
Nb1 Nb0+ 0.0080(2) 0.0052(2) 0.0081(2) 0 0 0
Nb2 Nb0+ 0.0084(2) 0.0066(2) 0.0090(2) 0 0 0
Nb3 Nb0+ 0.0080(2) 0.0056(2) 0.0081(2) 0 0 0
C1 C0+ 0.007(2) 0.005(2) 0.012(2) 0 0 0
B1 B0+ 0.018(3) 0.007(2) 0.005(2) 0 0 0
B2 B0+ 0.015(3) 0.009(2) 0.009(2) 0 0 0
B3 B0+ 0.014(3) 0.009(2) 0.010(2) 0 0 0
#End of TTdata_411622-ICSD