
#(C) 2017 by FIZ Karlsruhe - Leibniz Institute for Information Infrastructure.  All rights reserved.
data_411623-ICSD
_database_code_ICSD 411623
_audit_creation_date 2002-10-01
_chemical_name_systematic 'Niobium boride carbide (4/3/2)'
_chemical_formula_structural 'Nb4 B3 C2'
_chemical_formula_sum 'C2 B3 Nb4'
_exptl_crystal_density_diffrn 7.49
_publ_section_title
'Crystal structures from a building set: the first boridecarbides of niobium'
loop_
_citation_id
_citation_journal_full
_citation_year
_citation_journal_volume
_citation_page_first
_citation_page_last
_citation_journal_id_ASTM
primary 'Angewandte Chemie. International Edition' 2001 40 1445 1447 ACIEF5
loop_
_publ_author_name
'Hillebrecht, H.'
'Gebhardt, K.'
_cell_length_a 3.2287(7)
_cell_length_b 37.544(11)
_cell_length_c 3.1331(7)
_cell_angle_alpha 90.
_cell_angle_beta 90.
_cell_angle_gamma 90.
_cell_volume 379.79
_cell_formula_units_Z 4
_symmetry_space_group_name_H-M 'C m c m'
_symmetry_Int_Tables_number 63
_refine_ls_R_factor_all 0.02
loop_
_symmetry_equiv_pos_site_id
_symmetry_equiv_pos_as_xyz
1 '-x, y, -z+1/2'
2 '-x, -y, z+1/2'
3 '-x, y, z'
4 '-x, -y, -z'
5 'x, -y, z+1/2'
6 'x, y, -z+1/2'
7 'x, -y, -z'
8 'x, y, z'
9 '-x+1/2, y+1/2, -z+1/2'
10 '-x+1/2, -y+1/2, z+1/2'
11 '-x+1/2, y+1/2, z'
12 '-x+1/2, -y+1/2, -z'
13 'x+1/2, -y+1/2, z+1/2'
14 'x+1/2, y+1/2, -z+1/2'
15 'x+1/2, -y+1/2, -z'
16 'x+1/2, y+1/2, z'
loop_
_atom_type_symbol
_atom_type_oxidation_number
Nb0+ 0
C0+ 0
B0+ 0
loop_
_atom_site_label
_atom_site_type_symbol
_atom_site_symmetry_multiplicity
_atom_site_Wyckoff_symbol
_atom_site_fract_x
_atom_site_fract_y
_atom_site_fract_z
_atom_site_B_iso_or_equiv
_atom_site_occupancy
_atom_site_attached_hydrogens
Nb1 Nb0+ 4 c 0.5 0.661850(9) 0.25 . 1. 0
Nb2 Nb0+ 4 c 0 0.719580(9) -.25 . 1. 0
Nb3 Nb0+ 4 c 0 0.605610(9) -.25 . 1. 0
Nb4 Nb0+ 4 c 0 0.535810(9) -.75 . 1. 0
C1 C0+ 4 c 0.5 0.72018(10) 0.25 . 1. 0
C2 C0+ 4 c 0 0.66191(10) -.25 . 1. 0
B1 B0+ 4 c -.5 0.48830(12) -.75 . 1. 0
B2 B0+ 4 c -.5 0.43983(12) -.75 . 1. 0
B3 B0+ 4 c 0.5 0.58568(12) 0.25 . 1. 0
loop_
_atom_site_aniso_label
_atom_site_aniso_type_symbol
_atom_site_aniso_U_11
_atom_site_aniso_U_22
_atom_site_aniso_U_33
_atom_site_aniso_U_12
_atom_site_aniso_U_13
_atom_site_aniso_U_23
Nb1 Nb0+ 0.00418(14) 0.00432(15) 0.00354(15) 0 0 0
Nb2 Nb0+ 0.00448(14) 0.00425(15) 0.00382(14) 0 0 0
Nb3 Nb0+ 0.00378(14) 0.00376(14) 0.00317(14) 0 0 0
Nb4 Nb0+ 0.00396(13) 0.00358(14) 0.00308(14) 0 0 0
C1 C0+ 0.0050(13) 0.0067(14) 0.0037(13) 0 0 0
C2 C0+ 0.0057(13) 0.0039(13) 0.0029(13) 0 0 0
B1 B0+ 0.006(2) 0.0044(15) 0.009(2) 0 0 0
B2 B0+ 0.006(2) 0.007(2) 0.007(2) 0 0 0
B3 B0+ 0.007(2) 0.0051(15) 0.006(2) 0 0 0
#End of TTdata_411623-ICSD