
#(C) 2017 by FIZ Karlsruhe - Leibniz Institute for Information Infrastructure.  All rights reserved.
data_41169-ICSD
_database_code_ICSD 41169
_audit_creation_date 1999-11-30
_audit_update_record 2002-04-01
_chemical_name_systematic 'Copper arsenide (3/4)'
_chemical_formula_structural 'Cu3 As4'
_chemical_formula_sum 'As4 Cu3'
_exptl_crystal_density_diffrn 4.97
_publ_section_title

;
Cu3 As4 - eine Kolumnarstruktur: mit polykondensierten hetero-nuklearen
Cunean-Einheiten
;
loop_
_citation_id
_citation_journal_full
_citation_year
_citation_journal_volume
_citation_page_first
_citation_page_last
_citation_journal_id_ASTM
primary 'Zeitschrift fuer Kristallographie (1979-2010)' 1982 159 17 18 ZEKRDZ
loop_
_publ_author_name
'Blendl, C.'
'Range, K.J.'
_cell_length_a 3.540(3)
_cell_length_b 13.45(1)
_cell_length_c 13.77(1)
_cell_angle_alpha 90.
_cell_angle_beta 90.
_cell_angle_gamma 90.
_cell_volume 655.63
_cell_formula_units_Z 4
_symmetry_space_group_name_H-M 'I m m m'
_symmetry_Int_Tables_number 71
_refine_ls_R_factor_all 0.068
loop_
_symmetry_equiv_pos_site_id
_symmetry_equiv_pos_as_xyz
1 'x, y, -z'
2 'x, -y, z'
3 '-x, y, z'
4 '-x, -y, -z'
5 '-x, -y, z'
6 '-x, y, -z'
7 'x, -y, -z'
8 'x, y, z'
9 'x+1/2, y+1/2, -z+1/2'
10 'x+1/2, -y+1/2, z+1/2'
11 '-x+1/2, y+1/2, z+1/2'
12 '-x+1/2, -y+1/2, -z+1/2'
13 '-x+1/2, -y+1/2, z+1/2'
14 '-x+1/2, y+1/2, -z+1/2'
15 'x+1/2, -y+1/2, -z+1/2'
16 'x+1/2, y+1/2, z+1/2'
loop_
_atom_type_symbol
_atom_type_oxidation_number
Cu0+ 0
As0+ 0
loop_
_atom_site_label
_atom_site_type_symbol
_atom_site_symmetry_multiplicity
_atom_site_Wyckoff_symbol
_atom_site_fract_x
_atom_site_fract_y
_atom_site_fract_z
_atom_site_B_iso_or_equiv
_atom_site_occupancy
_atom_site_attached_hydrogens
Cu1 Cu0+ 8 l 0.5 0.346 0.089 . 1. 0
Cu2 Cu0+ 4 i 0.5 0.5 0.178 . 1. 0
As1 As0+ 8 l 0 0.238 0.148 . 1. 0
As2 As0+ 4 g 0 0.112 0 . 1. 0
As3 As0+ 4 j 0 0.5 0.298 . 1. 0
#End of TTdata_41169-ICSD