
#(C) 2017 by FIZ Karlsruhe - Leibniz Institute for Information Infrastructure.  All rights reserved.
data_411883-ICSD
_database_code_ICSD 411883
_audit_creation_date 2002-10-01
_chemical_name_systematic 'Niobium iridium germanide (1/1/1)'
_chemical_formula_structural 'Nb Ir Ge'
_chemical_formula_sum 'Ge1 Ir1 Nb1'
_chemical_name_structure_type TiNiSi-MgSrSi
_exptl_crystal_density_diffrn 12.8
_publ_section_title

;
New metal-rich compounds Nb Ir Si, Nb Ir Ge, and Ta Ir Si synthesis, structure
and magnetic properties
;
loop_
_citation_id
_citation_journal_full
_citation_year
_citation_journal_volume
_citation_page_first
_citation_page_last
_citation_journal_id_ASTM
primary 'Zeitschrift fuer Naturforschung, B: Chemical Sciences' 2001 56 463 468
ZNBSEN
loop_
_publ_author_name
'Mishra, R.'
'Poettgen, R.'
'Kotzyba, G.'
_cell_length_a 6.4548(3)
_cell_length_b 3.8921(2)
_cell_length_c 7.4111(4)
_cell_angle_alpha 90.
_cell_angle_beta 90.
_cell_angle_gamma 90.
_cell_volume 186.19
_cell_formula_units_Z 4
_symmetry_space_group_name_H-M 'P n m a'
_symmetry_Int_Tables_number 62
_refine_ls_R_factor_all 0.0583
loop_
_symmetry_equiv_pos_site_id
_symmetry_equiv_pos_as_xyz
1 'x+1/2, y, -z+1/2'
2 'x, -y+1/2, z'
3 '-x+1/2, y+1/2, z+1/2'
4 '-x, -y, -z'
5 '-x+1/2, -y, z+1/2'
6 '-x, y+1/2, -z'
7 'x+1/2, -y+1/2, -z+1/2'
8 'x, y, z'
loop_
_atom_type_symbol
_atom_type_oxidation_number
Nb0+ 0
Ir0+ 0
Ge0+ 0
loop_
_atom_site_label
_atom_site_type_symbol
_atom_site_symmetry_multiplicity
_atom_site_Wyckoff_symbol
_atom_site_fract_x
_atom_site_fract_y
_atom_site_fract_z
_atom_site_B_iso_or_equiv
_atom_site_occupancy
_atom_site_attached_hydrogens
Nb1 Nb0+ 4 c 0.9746(5) 0.25 0.6787(5) . 1. 0
Ir1 Ir0+ 4 c 0.3550(3) 0.25 0.4382(3) . 1. 0
Ge1 Ge0+ 4 c 0.7389(7) 0.25 0.3753(6) . 1. 0
loop_
_atom_site_aniso_label
_atom_site_aniso_type_symbol
_atom_site_aniso_U_11
_atom_site_aniso_U_22
_atom_site_aniso_U_33
_atom_site_aniso_U_12
_atom_site_aniso_U_13
_atom_site_aniso_U_23
Nb1 Nb0+ 0.0060(17) 0.010(2) 0.0071(18) 0 0.0031(14) 0
Ir1 Ir0+ 0.0086(7) 0.0084(10) 0.0067(8) 0 -.0005(7) 0
Ge1 Ge0+ 0.011(2) 0.009(3) 0.008(2) 0 -.0013(17) 0
#End of TTdata_411883-ICSD