
#(C) 2017 by FIZ Karlsruhe - Leibniz Institute for Information Infrastructure.  All rights reserved.
data_412103-ICSD
_database_code_ICSD 412103
_audit_creation_date 2003-04-01
_chemical_name_systematic 'Arsenic(V) chloride'
_chemical_formula_structural 'As Cl5'
_chemical_formula_sum 'As1 Cl5'
_exptl_crystal_density_diffrn 2.5
_cell_measurement_temperature 150.
_publ_section_title 'Solid state structures of As Cl5 and Sb Cl5'
loop_
_citation_id
_citation_journal_full
_citation_year
_citation_journal_volume
_citation_page_first
_citation_page_last
_citation_journal_id_ASTM
primary 'Zeitschrift fuer Anorganische und Allgemeine Chemie (1950) (DE)' 2002
628 729 734 ZAACAB
loop_
_publ_author_name
'Haupt, S.'
'Seppelt, K.'
_cell_length_a 7.0625(13)
_cell_length_b 7.6029(15)
_cell_length_c 6.2327(12)
_cell_angle_alpha 90.
_cell_angle_beta 90.
_cell_angle_gamma 90.
_cell_volume 334.67
_cell_formula_units_Z 2
_symmetry_space_group_name_H-M 'P m m n Z'
_symmetry_Int_Tables_number 59
_refine_ls_R_factor_all 0.021
loop_
_symmetry_equiv_pos_site_id
_symmetry_equiv_pos_as_xyz
1 'x+1/2, y+1/2, -z'
2 '-x, y+1/2, -z'
3 'x+1/2, -y, -z'
4 '-x, -y, -z'
5 '-x+1/2, -y+1/2, z'
6 'x, -y+1/2, z'
7 '-x+1/2, y, z'
8 'x, y, z'
loop_
_atom_type_symbol
_atom_type_oxidation_number
As5+ 5
Cl1- -1
loop_
_atom_site_label
_atom_site_type_symbol
_atom_site_symmetry_multiplicity
_atom_site_Wyckoff_symbol
_atom_site_fract_x
_atom_site_fract_y
_atom_site_fract_z
_atom_site_B_iso_or_equiv
_atom_site_occupancy
_atom_site_attached_hydrogens
As1 As5+ 2 b 0.75 0.25 0.17415(6) 0.02288(13) 1. 0
Cl1 Cl1- 4 f 0.49257(10) 0.25 0.34870(13) 0.0481(2) 1. 0
Cl2 Cl1- 2 b 0.75 0.25 -.16377(16) 0.0470(3) 1. 0
Cl3 Cl1- 4 e 0.75 -.04023(11) 0.17354(17) 0.0565(3) 1. 0
loop_
_atom_site_aniso_label
_atom_site_aniso_type_symbol
_atom_site_aniso_U_11
_atom_site_aniso_U_22
_atom_site_aniso_U_33
_atom_site_aniso_U_12
_atom_site_aniso_U_13
_atom_site_aniso_U_23
As1 As5+ 0.01900(18) 0.0273(2) 0.0223(2) 0 0 0
Cl1 Cl1- 0.0242(3) 0.0797(6) 0.0405(4) 0 0.0086(3) 0
Cl2 Cl1- 0.0483(6) 0.0698(8) 0.0230(5) 0 0 0
Cl3 Cl1- 0.0578(5) 0.0292(4) 0.0825(7) 0 0 0.0077(4)
#End of TTdata_412103-ICSD