
#(C) 2017 by FIZ Karlsruhe - Leibniz Institute for Information Infrastructure.  All rights reserved.
data_412113-ICSD
_database_code_ICSD 412113
_audit_creation_date 2003-10-01
_chemical_name_systematic 'Lanthanum rhodium magnesium'
_chemical_formula_structural 'La Rh Mg'
_chemical_formula_sum 'La1 Mg1 Rh1'
_chemical_name_structure_type CeRhAl
_exptl_crystal_density_diffrn 6.46
_publ_section_title
'Syntheses and Crystal Structures of LaRhMg, CeRhMg, PrRhMg, and NdRhMg'
loop_
_citation_id
_citation_journal_full
_citation_year
_citation_journal_volume
_citation_page_first
_citation_page_last
_citation_journal_id_ASTM
primary 'Zeitschrift fuer Anorganische und Allgemeine Chemie (1950) (DE)' 2002
628 667 672 ZAACAB
loop_
_publ_author_name
'Fickenscher, T.'
'Hoffmann, R.D.'
'Kraft, R.'
'Poettgen, R.'
_cell_length_a 7.601(2)
_cell_length_b 4.1992(8)
_cell_length_c 17.026(2)
_cell_angle_alpha 90.
_cell_angle_beta 90.
_cell_angle_gamma 90.
_cell_volume 543.44
_cell_formula_units_Z 8
_symmetry_space_group_name_H-M 'P n m a'
_symmetry_Int_Tables_number 62
_refine_ls_R_factor_all 0.0777
loop_
_symmetry_equiv_pos_site_id
_symmetry_equiv_pos_as_xyz
1 'x+1/2, y, -z+1/2'
2 'x, -y+1/2, z'
3 '-x+1/2, y+1/2, z+1/2'
4 '-x, -y, -z'
5 '-x+1/2, -y, z+1/2'
6 '-x, y+1/2, -z'
7 'x+1/2, -y+1/2, -z+1/2'
8 'x, y, z'
loop_
_atom_type_symbol
_atom_type_oxidation_number
La0+ 0
Rh0+ 0
Mg0+ 0
loop_
_atom_site_label
_atom_site_type_symbol
_atom_site_symmetry_multiplicity
_atom_site_Wyckoff_symbol
_atom_site_fract_x
_atom_site_fract_y
_atom_site_fract_z
_atom_site_B_iso_or_equiv
_atom_site_occupancy
_atom_site_attached_hydrogens
La1 La0+ 4 c 0.04375(17) 0.25 0.28189(6) 0.0099(2) 1. 0
La2 La0+ 4 c 0.16229(14) 0.25 0.06175(6) 0.0093(2) 1. 0
Rh1 Rh0+ 4 c 0.2447(2) 0.25 0.43753(9) 0.0114(3) 1. 0
Rh2 Rh0+ 4 c 0.2535(2) 0.25 0.68680(8) 0.0126(3) 1. 0
Mg1 Mg0+ 4 c 0.9971(6) 0.25 0.5625(4) 0.0085(13) 1. 0
Mg2 Mg0+ 4 c 0.1329(8) 0.25 0.8513(3) 0.0047(11) 1. 0
loop_
_atom_site_aniso_label
_atom_site_aniso_type_symbol
_atom_site_aniso_U_11
_atom_site_aniso_U_22
_atom_site_aniso_U_33
_atom_site_aniso_U_12
_atom_site_aniso_U_13
_atom_site_aniso_U_23
La1 La0+ 0.0115(5) 0.0076(4) 0.0107(4) 0 -0.0015(5) 0
La2 La0+ 0.0091(5) 0.0089(4) 0.0099(5) 0 -0.0002(5) 0
Rh1 Rh0+ 0.0124(7) 0.0085(6) 0.0133(6) 0 0.0007(7) 0
Rh2 Rh0+ 0.0137(8) 0.0109(6) 0.0134(6) 0 -0.0013(7) 0
Mg1 Mg0+ 0.011(4) 0.007(2) 0.008(2) 0 0.001(2) 0
Mg2 Mg0+ 0.005(3) 0.008(2) 0.001(2) 0 0.000(2) 0
#End of TTdata_412113-ICSD