
#(C) 2017 by FIZ Karlsruhe - Leibniz Institute for Information Infrastructure.  All rights reserved.
data_412296-ICSD
_database_code_ICSD 412296
_audit_creation_date 2003-04-01
_audit_update_record 2016-08-01
_chemical_name_systematic 'Copper(I) magnesium arsenide'
_chemical_formula_structural 'Cu Mg As'
_chemical_formula_sum 'As1 Cu1 Mg1'
_exptl_crystal_density_diffrn 5.49
_publ_section_title

;
Zur Abgrenzung der (Pb F Cl)- und (Cu2 Sb)-Strukturfamilien: Neubestimmung und
Verfeinerung der Kristallstrukturen Cu Mg Sb, Cu2 Sb und Cu Mg As
;
loop_
_citation_id
_citation_journal_full
_citation_year
_citation_journal_volume
_citation_page_first
_citation_page_last
_citation_journal_id_ASTM
primary 'Zeitschrift fuer Anorganische und Allgemeine Chemie (1950) (DE)' 2002
628 1152 1157 ZAACAB
loop_
_publ_author_name
'Nuss, J.'
'Jansen, M.'
_cell_length_a 13.460(1)
_cell_length_b 3.9540(3)
_cell_length_c 7.3958(6)
_cell_angle_alpha 90.
_cell_angle_beta 90.
_cell_angle_gamma 90.
_cell_volume 393.61
_cell_formula_units_Z 8
_symmetry_space_group_name_H-M 'P n m a'
_symmetry_Int_Tables_number 62
_refine_ls_R_factor_all 0.0393
loop_
_symmetry_equiv_pos_site_id
_symmetry_equiv_pos_as_xyz
1 'x+1/2, y, -z+1/2'
2 'x, -y+1/2, z'
3 '-x+1/2, y+1/2, z+1/2'
4 '-x, -y, -z'
5 '-x+1/2, -y, z+1/2'
6 '-x, y+1/2, -z'
7 'x+1/2, -y+1/2, -z+1/2'
8 'x, y, z'
loop_
_atom_type_symbol
_atom_type_oxidation_number
As3- -3
Cu1+ 1
Mg2+ 2
loop_
_atom_site_label
_atom_site_type_symbol
_atom_site_symmetry_multiplicity
_atom_site_Wyckoff_symbol
_atom_site_fract_x
_atom_site_fract_y
_atom_site_fract_z
_atom_site_B_iso_or_equiv
_atom_site_occupancy
_atom_site_attached_hydrogens
As1 As3- 4 c 0.24814(4) 0.25 0.02069(7) 0.01314(14) 1. 0
As2 As3- 4 c 0.00004(4) 0.25 0.75218(7) 0.01300(14) 1. 0
Cu1 Cu1+ 4 c 0.43566(5) 0.25 0.06941(9) 0.01930(17) 1. 0
Cu2 Cu1+ 4 c 0.18723(6) 0.25 0.70027(9) 0.02034(17) 1. 0
Mg1 Mg2+ 4 c 0.39286(15) 0.25 0.4442(2) 0.0173(3) 1. 0
Mg2 Mg2+ 4 c 0.14279(14) 0.25 0.3253(3) 0.0170(4) 1. 0
loop_
_atom_site_aniso_label
_atom_site_aniso_type_symbol
_atom_site_aniso_U_11
_atom_site_aniso_U_22
_atom_site_aniso_U_33
_atom_site_aniso_U_12
_atom_site_aniso_U_13
_atom_site_aniso_U_23
As1 As3- 0.0124(2) 0.0141(2) 0.0129(2) 0 0.00009(15) 0
As2 As3- 0.0123(3) 0.0140(2) 0.0127(2) 0 0.00009(15) 0
Cu1 Cu1+ 0.0195(3) 0.0207(3) 0.0178(3) 0 -0.0007(2) 0
Cu2 Cu1+ 0.0221(3) 0.0208(3) 0.0181(3) 0 -0.0002(2) 0
Mg1 Mg2+ 0.0177(9) 0.0179(8) 0.0163(8) 0 -0.0015(6) 0
Mg2 Mg2+ 0.0159(8) 0.0195(9) 0.0156(8) 0 0.0002(6) 0
#End of TTdata_412296-ICSD