
data_412403-ICSD
_database_code_ICSD 412403
_audit_creation_date 2003-04-01
_chemical_name_systematic 'Mercury selenate(VI)'
_chemical_formula_structural 'Hg (Se O4)'
_chemical_formula_sum 'Hg1 O4 Se1'
_chemical_name_structure_type CdSO4
_exptl_crystal_density_diffrn 6.89
_cell_measurement_temperature 295.
_cell_length_a 6.7311(9)
_cell_length_b 4.9308(6)
_cell_length_c 4.989(2)
_cell_angle_alpha 90.
_cell_angle_beta 90.
_cell_angle_gamma 90.
_cell_volume 165.58
_cell_formula_units_Z 2
_symmetry_space_group_name_H-M 'P m n 21'
_symmetry_Int_Tables_number 31
_refine_ls_R_factor_all 0.0318
loop_
_symmetry_equiv_pos_site_id
_symmetry_equiv_pos_as_xyz
1 'x+1/2, -y, z+1/2'
2 '-x+1/2, -y, z+1/2'
3 '-x, y, z'
4 'x, y, z'
loop_
_atom_type_symbol
_atom_type_oxidation_number
Hg2+ 2
Se6+ 6
O2- -2
loop_
_atom_site_label
_atom_site_type_symbol
_atom_site_symmetry_multiplicity
_atom_site_Wyckoff_symbol
_atom_site_fract_x
_atom_site_fract_y
_atom_site_fract_z
_atom_site_B_iso_or_equiv
_atom_site_occupancy
_atom_site_attached_hydrogens
Hg1 Hg2+ 2 a 0 0.85409(6) 0 0.01497(14) 1. 0
Se1 Se6+ 2 a 0 0.34047(15) 0.4806(7) 0.0089(3) 1. 0
O1 O2- 4 b 0.6924(7) 0.8096(11) 0.8338(11) 0.0163(9) 1. 0
O2 O2- 2 a 0 0.6670(12) 0.4164(17) 0.0184(13) 1. 0
O3 O2- 2 a 0 0.2996(17) 0.8072(14) 0.0179(13) 1. 0
loop_
_atom_site_aniso_label
_atom_site_aniso_type_symbol
_atom_site_aniso_U_11
_atom_site_aniso_U_22
_atom_site_aniso_U_33
_atom_site_aniso_U_12
_atom_site_aniso_U_13
_atom_site_aniso_U_23
Hg1 Hg2+ 0.01212(15) 0.01520(15) 0.0176(2) 0 0 0.0036(2)
Se1 Se6+ 0.0083(3) 0.0067(3) 0.0116(10) 0 0 0.0012(3)
O1 O2- 0.0098(17) 0.021(2) 0.018(2) -0.0033(15) 0.0017(15) 0.0042(16)
O2 O2- 0.033(4) 0.004(3) 0.019(3) 0 0 0.004(2)
O3 O2- 0.024(3) 0.018(3) 0.011(3) 0 0 0.005(2)
