
#(C) 2017 by FIZ Karlsruhe - Leibniz Institute for Information Infrastructure.  All rights reserved.
data_412563-ICSD
_database_code_ICSD 412563
_audit_creation_date 2005-10-01
_chemical_name_systematic 'Bismuth calcium palladium (8/3/4)'
_chemical_formula_structural 'Bi8 Ca3 Pd4'
_chemical_formula_sum 'Bi8 Ca3 Pd4'
_exptl_crystal_density_diffrn 9.63
_publ_section_title 'Ca3Pd4Bi8: Kristall- und elektronische Bandstruktur'
loop_
_citation_id
_citation_journal_full
_citation_year
_citation_journal_volume
_citation_page_first
_citation_page_last
_citation_journal_id_ASTM
primary 'Zeitschrift fuer Anorganische und Allgemeine Chemie (1950) (DE)' 2002
628 2671 2674 ZAACAB
loop_
_publ_author_name
'Johrendt, D.'
'Mewis, A.'
_cell_length_a 10.814(4)
_cell_length_b 17.050(6)
_cell_length_c 4.149(4)
_cell_angle_alpha 90.
_cell_angle_beta 90.
_cell_angle_gamma 90.
_cell_volume 764.99
_cell_formula_units_Z 2
_symmetry_space_group_name_H-M 'P b a m'
_symmetry_Int_Tables_number 55
_refine_ls_R_factor_all 0.1138
loop_
_symmetry_equiv_pos_site_id
_symmetry_equiv_pos_as_xyz
1 'x+1/2, -y+1/2, z'
2 '-x+1/2, y+1/2, z'
3 'x, y, -z'
4 '-x, -y, -z'
5 '-x+1/2, y+1/2, -z'
6 'x+1/2, -y+1/2, -z'
7 '-x, -y, z'
8 'x, y, z'
loop_
_atom_type_symbol
_atom_type_oxidation_number
Ca0+ 0
Pd0+ 0
Bi0+ 0
loop_
_atom_site_label
_atom_site_type_symbol
_atom_site_symmetry_multiplicity
_atom_site_Wyckoff_symbol
_atom_site_fract_x
_atom_site_fract_y
_atom_site_fract_z
_atom_site_B_iso_or_equiv
_atom_site_occupancy
_atom_site_attached_hydrogens
Ca1 Ca0+ 2 d 0. 0.5 0.5 0.026(3) 1 0
Ca2 Ca0+ 4 h 0.8576(7) 0.1992(4) 0.5 0.0157(18) 1 0
Pd1 Pd0+ 4 g 0.9538(3) 0.07827(17) 0. 0.0180(7) 1 0
Pd2 Pd0+ 4 h 0.5713(3) 0.17587(16) 0.5 0.0160(7) 1 0
Bi1 Bi0+ 4 g 0.11012(14) 0.21334(7) 0. 0.0147(4) 1 0
Bi2 Bi0+ 4 g 0.39120(14) 0.14295(8) 0. 0.0160(4) 1 0
Bi3 Bi0+ 4 h 0.12962(13) 0.03892(8) 0.5 0.0167(4) 1 0
Bi4 Bi0+ 4 g 0.69601(12) 0.08589(8) 0. 0.0147(4) 1 0
loop_
_atom_site_aniso_label
_atom_site_aniso_type_symbol
_atom_site_aniso_U_11
_atom_site_aniso_U_22
_atom_site_aniso_U_33
_atom_site_aniso_U_12
_atom_site_aniso_U_13
_atom_site_aniso_U_23
Ca1 Ca0+ 0.033(7) 0.021(6) 0.023(8) 0.005(5) 0. 0.
Ca2 Ca0+ 0.011(3) 0.016(4) 0.021(5) -0.005(3) 0. 0.
Pd1 Pd0+ 0.0187(12) 0.0144(13) 0.0209(19) -0.0001(12) 0. 0.
Pd2 Pd0+ 0.0218(15) 0.0135(13) 0.0126(19) 0.0015(11) 0. 0.
Bi1 Bi0+ 0.0154(7) 0.0145(6) 0.0142(9) -0.0003(6) 0. 0.
Bi2 Bi0+ 0.0154(7) 0.0170(7) 0.0157(9) 0.0007(6) 0. 0.
Bi3 Bi0+ 0.0163(7) 0.0179(7) 0.0160(9) -0.0009(6) 0. 0.
Bi4 Bi0+ 0.0127(6) 0.0165(7) 0.0149(9) 0.0010(5) 0. 0.
#End of TTdata_412563-ICSD