
#(C) 2017 by FIZ Karlsruhe - Leibniz Institute for Information Infrastructure.  All rights reserved.
data_413089-ICSD
_database_code_ICSD 413089
_audit_creation_date 2004-10-01
_audit_update_record 2007-08-01
_chemical_name_systematic 'Disilver selenate(VI)'
_chemical_formula_structural 'Ag2 (Se O4)'
_chemical_formula_sum 'Ag2 O4 Se1'
_chemical_name_structure_type Na2SO4
_exptl_crystal_density_diffrn 5.83
_cell_measurement_temperature 295.
_publ_section_title

;
Investigations in the systems Ag - Hg - X - O (X = As(V), Se(IV), Se(VI)):
hydrothermal single crystal growth of Ag3 As O4, Ag Hg(I)2 As O4, Ag Hg(II) As
O4, Ag2 Se O4 and the crystal structure of Ag2 Hg(II) (Se O3)2
;
loop_
_citation_id
_citation_journal_full
_citation_year
_citation_journal_volume
_citation_page_first
_citation_page_last
_citation_journal_id_ASTM
primary 'Zeitschrift fuer Naturforschung, B: Chemical Sciences' 2003 58 1091
1096 ZNBSEN
loop_
_publ_author_name
'Weil, M.'
_cell_length_a 6.0531(9)
_cell_length_b 10.3898(11)
_cell_length_c 13.0001(11)
_cell_angle_alpha 90.
_cell_angle_beta 90.
_cell_angle_gamma 90.
_cell_volume 817.58
_cell_formula_units_Z 8
_symmetry_space_group_name_H-M 'F d d d Z'
_symmetry_Int_Tables_number 70
_refine_ls_R_factor_all 0.0291
loop_
_symmetry_equiv_pos_site_id
_symmetry_equiv_pos_as_xyz
1 'x+3/4, y+3/4, -z'
2 'x+3/4, -y, z+3/4'
3 '-x, y+3/4, z+3/4'
4 '-x, -y, -z'
5 '-x+1/4, -y+1/4, z'
6 '-x+1/4, y, -z+1/4'
7 'x, -y+1/4, -z+1/4'
8 'x, y, z'
9 'x+3/4, y+1/4, -z+1/2'
10 'x+3/4, -y+1/2, z+1/4'
11 '-x, y+1/4, z+1/4'
12 '-x, -y+1/2, -z+1/2'
13 '-x+1/4, -y+3/4, z+1/2'
14 '-x+1/4, y+1/2, -z+3/4'
15 'x, -y+3/4, -z+3/4'
16 'x, y+1/2, z+1/2'
17 'x+1/4, y+3/4, -z+1/2'
18 'x+1/4, -y, z+1/4'
19 '-x+1/2, y+3/4, z+1/4'
20 '-x+1/2, -y, -z+1/2'
21 '-x+3/4, -y+1/4, z+1/2'
22 '-x+3/4, y, -z+3/4'
23 'x+1/2, -y+1/4, -z+3/4'
24 'x+1/2, y, z+1/2'
25 'x+1/4, y+1/4, -z'
26 'x+1/4, -y+1/2, z+3/4'
27 '-x+1/2, y+1/4, z+3/4'
28 '-x+1/2, -y+1/2, -z'
29 '-x+3/4, -y+3/4, z'
30 '-x+3/4, y+1/2, -z+1/4'
31 'x+1/2, -y+3/4, -z+1/4'
32 'x+1/2, y+1/2, z'
loop_
_atom_type_symbol
_atom_type_oxidation_number
Ag1+ 1
Se6+ 6
O2- -2
loop_
_atom_site_label
_atom_site_type_symbol
_atom_site_symmetry_multiplicity
_atom_site_Wyckoff_symbol
_atom_site_fract_x
_atom_site_fract_y
_atom_site_fract_z
_atom_site_B_iso_or_equiv
_atom_site_occupancy
_atom_site_attached_hydrogens
Ag1 Ag1+ 16 f 0.125 0.44750(5) 0.125 0.0174(2) 1. 0
Se1 Se6+ 8 a 0.125 0.125 0.125 0.0148(2) 1. 0
O1 O2- 32 h 0.2790(5) 0.0304(3) 0.0533(2) 0.0273(7) 1. 0
loop_
_atom_site_aniso_label
_atom_site_aniso_type_symbol
_atom_site_aniso_U_11
_atom_site_aniso_U_22
_atom_site_aniso_U_33
_atom_site_aniso_U_12
_atom_site_aniso_U_13
_atom_site_aniso_U_23
Ag1 Ag1+ 0.0244(3) 0.0385(3) 0.0194(3) 0 -.00230(14) 0
Se1 Se6+ 0.0113(3) 0.0194(4) 0.0139(3) 0 0 0
O1 O2- 0.0251(13) 0.0352(15) 0.0218(12) 0.0129(11) 0.0042(11) -.0016(10)
#End of TTdata_413089-ICSD