
data_413024-ICSD
_database_code_ICSD 413024
_audit_creation_date 2004-04-01
_chemical_name_systematic 'Distrontium tetrathiostannate'
_chemical_formula_structural 'Sr2 (Sn S4)'
_chemical_formula_sum 'S4 Sn1 Sr2'
_chemical_name_structure_type Sr2GeSe4
_exptl_crystal_density_diffrn 3.76
_cell_measurement_temperature 298.
_cell_length_a 9.977(1)
_cell_length_b 10.311(2)
_cell_length_c 7.2432(10)
_cell_angle_alpha 90.
_cell_angle_beta 90.
_cell_angle_gamma 90.
_cell_volume 745.13
_cell_formula_units_Z 4
_symmetry_space_group_name_H-M 'A m a 2'
_symmetry_Int_Tables_number 40
_refine_ls_R_factor_all 0.035
loop_
_symmetry_equiv_pos_site_id
_symmetry_equiv_pos_as_xyz
1 'x+1/2, -y, z'
2 '-x+1/2, y, z'
3 '-x, -y, z'
4 'x, y, z'
5 'x+1/2, -y+1/2, z+1/2'
6 '-x+1/2, y+1/2, z+1/2'
7 '-x, -y+1/2, z+1/2'
8 'x, y+1/2, z+1/2'
loop_
_atom_type_symbol
_atom_type_oxidation_number
Sn4+ 4
Sr2+ 2
S2- -2
loop_
_atom_site_label
_atom_site_type_symbol
_atom_site_symmetry_multiplicity
_atom_site_Wyckoff_symbol
_atom_site_fract_x
_atom_site_fract_y
_atom_site_fract_z
_atom_site_B_iso_or_equiv
_atom_site_occupancy
_atom_site_attached_hydrogens
Sn1 Sn4+ 4 b 0.25 0.27650(5) 0.18044(8) 0.01682(17) 1. 0
Sr1 Sr2+ 4 b 0.25 0.18924(10) -.33138(16) 0.0283(2) 1. 0
Sr2 Sr2+ 4 a 0 0 0.20747(16) 0.0229(3) 1. 0
S1 S2- 4 b 0.25 0.0707(2) 0.0229(3) 0.0188(5) 1. 0
S2 S2- 4 b 0.25 0.4378(2) -.0530(4) 0.0210(5) 1. 0
S3 S2- 8 c 0.05620(18) 0.27354(16) 0.3721(3) 0.0224(4) 1. 0
loop_
_atom_site_aniso_label
_atom_site_aniso_type_symbol
_atom_site_aniso_U_11
_atom_site_aniso_U_22
_atom_site_aniso_U_33
_atom_site_aniso_U_12
_atom_site_aniso_U_13
_atom_site_aniso_U_23
Sn1 Sn4+ 0.0172(3) 0.0167(3) 0.0165(3) 0 0 0.0023(3)
Sr1 Sr2+ 0.0442(5) 0.0238(4) 0.0167(5) 0 0 0.0015(5)
Sr2 Sr2+ 0.0172(4) 0.0205(4) 0.0309(6) -0.0029(3) 0 0
S1 S2- 0.0216(12) 0.0173(10) 0.0176(10) 0 0 0.0018(8)
S2 S2- 0.0224(13) 0.0176(10) 0.0230(11) 0 0 0.0048(10)
S3 S2- 0.0205(8) 0.0224(8) 0.0242(8) -0.0004(6) 0.0030(7) -0.0020(7)
