
data_413023-ICSD
_database_code_ICSD 413023
_audit_creation_date 2004-04-01
_audit_update_record 2013-08-01
_chemical_name_systematic 'Distrontium tetraselenogermanate  -  gamma'
_chemical_formula_structural 'Sr2 (Ge Se4)'
_chemical_formula_sum 'Ge1 Se4 Sr2'
_chemical_name_structure_type Sr2GeSe4
_exptl_crystal_density_diffrn 4.66
_cell_measurement_temperature 298.
_cell_length_a 10.284(2)
_cell_length_b 10.543(2)
_cell_length_c 7.411(1)
_cell_angle_alpha 90.
_cell_angle_beta 90.
_cell_angle_gamma 90.
_cell_volume 803.53
_cell_formula_units_Z 4
_symmetry_space_group_name_H-M 'A m a 2'
_symmetry_Int_Tables_number 40
_refine_ls_R_factor_all 0.069
loop_
_symmetry_equiv_pos_site_id
_symmetry_equiv_pos_as_xyz
1 'x+1/2, -y, z'
2 '-x+1/2, y, z'
3 '-x, -y, z'
4 'x, y, z'
5 'x+1/2, -y+1/2, z+1/2'
6 '-x+1/2, y+1/2, z+1/2'
7 '-x, -y+1/2, z+1/2'
8 'x, y+1/2, z+1/2'
loop_
_atom_type_symbol
_atom_type_oxidation_number
Sr2+ 2
Ge4+ 4
Se2- -2
loop_
_atom_site_label
_atom_site_type_symbol
_atom_site_symmetry_multiplicity
_atom_site_Wyckoff_symbol
_atom_site_fract_x
_atom_site_fract_y
_atom_site_fract_z
_atom_site_B_iso_or_equiv
_atom_site_occupancy
_atom_site_attached_hydrogens
Sr1 Sr2+ 4 a 0 0 0 0.0345(8) 1. 0
Sr2 Sr2+ 4 b 0.25 0.1896(3) 0.5521(6) 0.0384(8) 1. 0
Ge1 Ge4+ 4 b 0.25 0.2745(3) 0.0377(6) 0.0269(7) 1. 0
Se1 Se2- 8 c 0.5619(2) 0.2182(2) 0.3579(5) 0.0321(6) 1. 0
Se2 Se2- 4 b 0.25 0.0762(3) 0.1883(6) 0.0297(7) 1. 0
Se3 Se2- 4 b 0.25 0.4297(3) 0.2660(6) 0.0288(7) 1. 0
loop_
_atom_site_aniso_label
_atom_site_aniso_type_symbol
_atom_site_aniso_U_11
_atom_site_aniso_U_22
_atom_site_aniso_U_33
_atom_site_aniso_U_12
_atom_site_aniso_U_13
_atom_site_aniso_U_23
Sr1 Sr2+ 0.0328(14) 0.0286(15) 0.0421(18) -0.0004(12) 0 0
Sr2 Sr2+ 0.0562(19) 0.0340(16) 0.0250(13) 0 0 -0.0014(12)
Ge1 Ge4+ 0.0296(14) 0.0270(16) 0.0243(14) 0 0 -0.0010(13)
Se1 Se2- 0.0354(11) 0.0325(12) 0.0284(9) 0.0007(8) -0.0045(10) -0.0020(8)
Se2 Se2- 0.0358(16) 0.0271(17) 0.0261(14) 0 0 -0.0014(12)
Se3 Se2- 0.0321(15) 0.0267(16) 0.0276(13) 0 0 -0.0025(12)
