
#(C) 2017 by FIZ Karlsruhe - Leibniz Institute for Information Infrastructure.  All rights reserved.
data_413281-ICSD
_database_code_ICSD 413281
_audit_creation_date 2004-10-01
_chemical_name_systematic 'Palladium tin (16/32)'
_chemical_formula_structural 'Pd16 Sn32'
_chemical_formula_sum 'Pd16 Sn32'
_chemical_name_structure_type PdSn2(tI48)
_exptl_crystal_density_diffrn 8.9
_publ_section_title

;
Structural relationships, phase stability and bonding of compounds Pd Sn(n)
(n= 2,3,4)
;
loop_
_citation_id
_citation_journal_full
_citation_year
_citation_journal_volume
_citation_page_first
_citation_page_last
_citation_journal_id_ASTM
primary 'Solid State Sciences' 2004 6 147 155 SSSCFJ
loop_
_publ_author_name
'Nylen, J.'
'Garcia-Garcia, F.J.'
'Mosel, B.D.'
'Poettgen, R.'
'Haeussermann, U.'
_cell_length_a 6.4906(6)
_cell_length_b 6.4906(6)
_cell_length_c 24.353(4)
_cell_angle_alpha 90.
_cell_angle_beta 90.
_cell_angle_gamma 90.
_cell_volume 1025.94
_cell_formula_units_Z 1
_symmetry_space_group_name_H-M 'I 41/a c d Z'
_symmetry_Int_Tables_number 142
_refine_ls_R_factor_all 0.0319
loop_
_symmetry_equiv_pos_site_id
_symmetry_equiv_pos_as_xyz
1 'y+1/4, x+3/4, -z+3/4'
2 '-y+3/4, x+3/4, -z+1/4'
3 'x, y+1/2, -z'
4 '-x, y+1/2, -z+1/2'
5 '-y+3/4, -x+1/4, z+1/4'
6 'y+1/4, -x+1/4, z+3/4'
7 '-x, -y+1/2, z'
8 'x, -y+1/2, z+1/2'
9 'y+1/4, -x+3/4, -z+1/4'
10 '-y+3/4, -x+3/4, -z+3/4'
11 'x, -y, -z+1/2'
12 '-x, -y, -z'
13 '-y+3/4, x+1/4, z+3/4'
14 'y+1/4, x+1/4, z+1/4'
15 '-x, y, z+1/2'
16 'x, y, z'
17 'y+3/4, x+1/4, -z+1/4'
18 '-y+1/4, x+1/4, -z+3/4'
19 'x+1/2, y, -z+1/2'
20 '-x+1/2, y, -z'
21 '-y+1/4, -x+3/4, z+3/4'
22 'y+3/4, -x+3/4, z+1/4'
23 '-x+1/2, -y, z+1/2'
24 'x+1/2, -y, z'
25 'y+3/4, -x+1/4, -z+3/4'
26 '-y+1/4, -x+1/4, -z+1/4'
27 'x+1/2, -y+1/2, -z'
28 '-x+1/2, -y+1/2, -z+1/2'
29 '-y+1/4, x+3/4, z+1/4'
30 'y+3/4, x+3/4, z+3/4'
31 '-x+1/2, y+1/2, z'
32 'x+1/2, y+1/2, z+1/2'
loop_
_atom_type_symbol
_atom_type_oxidation_number
Pd0+ 0
Sn0+ 0
loop_
_atom_site_label
_atom_site_type_symbol
_atom_site_symmetry_multiplicity
_atom_site_Wyckoff_symbol
_atom_site_fract_x
_atom_site_fract_y
_atom_site_fract_z
_atom_site_B_iso_or_equiv
_atom_site_occupancy
_atom_site_attached_hydrogens
Pd1 Pd0+ 16 d 0 0.25 0.31665(4) . 1. 0
Sn1 Sn0+ 16 f 0.15785(9) 0.40785(9) 0.125 . 1. 0
Sn2 Sn0+ 16 e 0.24741(13) 0 0.25 . 1. 0
loop_
_atom_site_aniso_label
_atom_site_aniso_type_symbol
_atom_site_aniso_U_11
_atom_site_aniso_U_22
_atom_site_aniso_U_33
_atom_site_aniso_U_12
_atom_site_aniso_U_13
_atom_site_aniso_U_23
Pd1 Pd0+ 0.0124(6) 0.0133(6) 0.0127(5) 0.0001(3) 0 0
Sn1 Sn0+ 0.0101(3) 0.0101(3) 0.0149(4) 0.0006(3) 0.0003(2) -.0003(2)
Sn2 Sn0+ 0.0130(4) 0.0107(4) 0.0128(4) 0 0 -.0006(3)
#End of TTdata_413281-ICSD