
#(C) 2017 by FIZ Karlsruhe - Leibniz Institute for Information Infrastructure.  All rights reserved.
data_413557-ICSD
_database_code_ICSD 413557
_audit_creation_date 2005-04-01
_audit_update_record 2006-10-01
_chemical_name_systematic 'Iridium gallium (1/2)'
_chemical_formula_structural 'Ir Ga2'
_chemical_formula_sum 'Ga2 Ir1'
_chemical_name_structure_type Fe3Al2Si4
_exptl_crystal_density_diffrn 12.02
_publ_section_title

;
Synthesis, crystal structure and chemical bonding of the novel compound Ir Ga2
;
loop_
_citation_id
_citation_journal_full
_citation_year
_citation_journal_volume
_citation_page_first
_citation_page_last
_citation_journal_id_ASTM
primary 'Solid State Sciences' 2004 6 499 503 SSSCFJ
loop_
_publ_author_name
'Bostroem, M.'
'Prots', Yu.M.'
'Grin', Yu.'
_cell_length_a 3.9021(3)
_cell_length_b 12.9925(8)
_cell_length_c 10.8808(7)
_cell_angle_alpha 90.
_cell_angle_beta 90.
_cell_angle_gamma 90.
_cell_volume 551.64
_cell_formula_units_Z 12
_symmetry_space_group_name_H-M 'C m c m'
_symmetry_Int_Tables_number 63
_refine_ls_R_factor_all 0.0276
loop_
_symmetry_equiv_pos_site_id
_symmetry_equiv_pos_as_xyz
1 '-x, y, -z+1/2'
2 '-x, -y, z+1/2'
3 '-x, y, z'
4 '-x, -y, -z'
5 'x, -y, z+1/2'
6 'x, y, -z+1/2'
7 'x, -y, -z'
8 'x, y, z'
9 '-x+1/2, y+1/2, -z+1/2'
10 '-x+1/2, -y+1/2, z+1/2'
11 '-x+1/2, y+1/2, z'
12 '-x+1/2, -y+1/2, -z'
13 'x+1/2, -y+1/2, z+1/2'
14 'x+1/2, y+1/2, -z+1/2'
15 'x+1/2, -y+1/2, -z'
16 'x+1/2, y+1/2, z'
loop_
_atom_type_symbol
_atom_type_oxidation_number
Ir0+ 0
Ga0+ 0
loop_
_atom_site_label
_atom_site_type_symbol
_atom_site_symmetry_multiplicity
_atom_site_Wyckoff_symbol
_atom_site_fract_x
_atom_site_fract_y
_atom_site_fract_z
_atom_site_B_iso_or_equiv
_atom_site_occupancy
_atom_site_attached_hydrogens
Ir1 Ir0+ 4 c 0 0.85089(4) 0.25 0.00664(15) 1 0
Ir2 Ir0+ 8 f 0 0.64036(3) 0.12313(3) 0.00643(13) 1 0
Ga1 Ga0+ 4 c 0 0.23374(12) 0.25 0.0088(4) 1 0
Ga2 Ga0+ 4 c 0 0.04053(13) 0.25 0.0106(4) 1 0
Ga3 Ga0+ 8 f 0 0.82159(9) 0.01733(9) 0.0080(3) 1 0
Ga4 Ga0+ 8 f 0 0.44142(9) 0.10556(9) 0.0093(3) 1 0
loop_
_atom_site_aniso_label
_atom_site_aniso_type_symbol
_atom_site_aniso_U_11
_atom_site_aniso_U_22
_atom_site_aniso_U_33
_atom_site_aniso_U_12
_atom_site_aniso_U_13
_atom_site_aniso_U_23
Ir1 Ir0+ 0.0083(3) 0.0050(3) 0.0067(3) 0 0 0
Ir2 Ir0+ 0.0077(2) 0.0053(2) 0.0063(2) 0 0 0.00002(12)
Ga1 Ga0+ 0.0083(6) 0.0065(8) 0.0114(7) 0 0 0
Ga2 Ga0+ 0.0094(7) 0.0051(8) 0.0175(7) 0 0 0
Ga3 Ga0+ 0.0076(5) 0.0087(6) 0.0077(5) 0 0 0.0006(4)
Ga4 Ga0+ 0.0111(5) 0.0068(6) 0.0100(5) 0 0 -0.0017(4)
#End of TTdata_413557-ICSD