
data_413720-ICSD
_database_code_ICSD 413720
_audit_creation_date 2004-10-01
_audit_update_record 2012-08-01
_chemical_name_systematic 'Rhodium magnesium (1/3)'
_chemical_formula_structural 'Rh Mg3'
_chemical_formula_sum 'Mg3 Rh1'
_chemical_name_structure_type LaF3(P63mc)
_exptl_crystal_density_diffrn 3.88
_cell_length_a 7.905(4)
_cell_length_b 7.905(4)
_cell_length_c 8.256(3)
_cell_angle_alpha 90.
_cell_angle_beta 90.
_cell_angle_gamma 120.
_cell_volume 446.79
_cell_formula_units_Z 6
_symmetry_space_group_name_H-M 'P 63 c m'
_symmetry_Int_Tables_number 185
_refine_ls_R_factor_all 0.0187
loop_
_symmetry_equiv_pos_site_id
_symmetry_equiv_pos_as_xyz
1 'x, x-y, z+1/2'
2 '-x+y, y, z+1/2'
3 '-y, -x, z+1/2'
4 'x-y, x, z+1/2'
5 'y, -x+y, z+1/2'
6 '-x, -y, z+1/2'
7 '-x, -x+y, z'
8 'x-y, -y, z'
9 'y, x, z'
10 '-x+y, -x, z'
11 '-y, x-y, z'
12 'x, y, z'
loop_
_atom_type_symbol
_atom_type_oxidation_number
Rh0+ 0
Mg0+ 0
loop_
_atom_site_label
_atom_site_type_symbol
_atom_site_symmetry_multiplicity
_atom_site_Wyckoff_symbol
_atom_site_fract_x
_atom_site_fract_y
_atom_site_fract_z
_atom_site_B_iso_or_equiv
_atom_site_occupancy
_atom_site_attached_hydrogens
Rh1 Rh0+ 6 c 0.32789(7) 0.32789(7) 0.2487(6) . 1. 0
Mg1 Mg0+ 2 a 0 0 0.3119(5) . 1. 0
Mg2 Mg0+ 4 b 0.3333 0.6667 0.2047(4) . 1. 0
Mg3 Mg0+ 6 c 0.2865(3) 0.2865(3) 0.5764(2) . 1. 0
Mg4 Mg0+ 6 c 0.6262(3) 0.6262(3) 0.4193(2) . 1. 0
loop_
_atom_site_aniso_label
_atom_site_aniso_type_symbol
_atom_site_aniso_U_11
_atom_site_aniso_U_22
_atom_site_aniso_U_33
_atom_site_aniso_U_12
_atom_site_aniso_U_13
_atom_site_aniso_U_23
Rh1 Rh0+ 0.00880(12) 0.00880(12) 0.00883(13) 0.00398(15) -.0004(2) -.0004(2)
Mg1 Mg0+ 0.0096(8) 0.0096(8) 0.021(3) 0.0048(4) 0 0
Mg2 Mg0+ 0.0091(5) 0.0091(5) 0.041(3) 0.0045(2) 0 0
Mg3 Mg0+ 0.0175(8) 0.0175(8) 0.0094(11) 0.0112(9) -.0003(9) -.0003(9)
Mg4 Mg0+ 0.0144(5) 0.0144(5) 0.0101(11) -.0001(7) -.0034(10) -.0034(10)
