
#(C) 2017 by FIZ Karlsruhe - Leibniz Institute for Information Infrastructure.  All rights reserved.
data_41381-ICSD
_database_code_ICSD 41381
_audit_creation_date 1999-11-30
_audit_update_record 2004-10-01
_chemical_name_systematic 'Lithium iron germanide (1/6/4)'
_chemical_formula_structural 'Li Fe6 Ge4'
_chemical_formula_sum 'Fe6 Ge4 Li1'
_chemical_name_structure_type GdSn4Ti6
_exptl_crystal_density_diffrn 7.27
_publ_section_title

;
Overlooked trigonal symmetry in structures reported with monoclinic centered
Bravais lattices; trigonal description of Li8 Pb3, Pt Te, Pt3 Te4, Pt2 Te3, Li
Fe6 Ge4, Li Fe6 Ge5, Ca Ga6 Te10 and La3.266 Mn1.1 S6
;
loop_
_citation_id
_citation_journal_full
_citation_year
_citation_journal_volume
_citation_page_first
_citation_page_last
_citation_journal_id_ASTM
primary 'Zeitschrift fuer Kristallographie (1979-2010)' 1990 193 217 242 ZEKRDZ
loop_
_publ_author_name
'Cenzual, K.'
'Gelato, M.N.'
'Penzo, M.'
'Parthe, E.'
_cell_length_a 5.045
_cell_length_b 5.045
_cell_length_c 19.66
_cell_angle_alpha 90.
_cell_angle_beta 90.
_cell_angle_gamma 120.
_cell_volume 433.35
_cell_formula_units_Z 3
_symmetry_space_group_name_H-M 'R -3 m H'
_symmetry_Int_Tables_number 166
loop_
_symmetry_equiv_pos_site_id
_symmetry_equiv_pos_as_xyz
1 'x-y, -y, -z'
2 '-x, -x+y, -z'
3 'y, x, -z'
4 'x-y, x, -z'
5 'y, -x+y, -z'
6 '-x, -y, -z'
7 '-x+y, y, z'
8 'x, x-y, z'
9 '-y, -x, z'
10 '-x+y, -x, z'
11 '-y, x-y, z'
12 'x, y, z'
13 'x-y+2/3, -y+1/3, -z+1/3'
14 '-x+2/3, -x+y+1/3, -z+1/3'
15 'y+2/3, x+1/3, -z+1/3'
16 'x-y+2/3, x+1/3, -z+1/3'
17 'y+2/3, -x+y+1/3, -z+1/3'
18 '-x+2/3, -y+1/3, -z+1/3'
19 '-x+y+2/3, y+1/3, z+1/3'
20 'x+2/3, x-y+1/3, z+1/3'
21 '-y+2/3, -x+1/3, z+1/3'
22 '-x+y+2/3, -x+1/3, z+1/3'
23 '-y+2/3, x-y+1/3, z+1/3'
24 'x+2/3, y+1/3, z+1/3'
25 'x-y+1/3, -y+2/3, -z+2/3'
26 '-x+1/3, -x+y+2/3, -z+2/3'
27 'y+1/3, x+2/3, -z+2/3'
28 'x-y+1/3, x+2/3, -z+2/3'
29 'y+1/3, -x+y+2/3, -z+2/3'
30 '-x+1/3, -y+2/3, -z+2/3'
31 '-x+y+1/3, y+2/3, z+2/3'
32 'x+1/3, x-y+2/3, z+2/3'
33 '-y+1/3, -x+2/3, z+2/3'
34 '-x+y+1/3, -x+2/3, z+2/3'
35 '-y+1/3, x-y+2/3, z+2/3'
36 'x+1/3, y+2/3, z+2/3'
loop_
_atom_type_symbol
_atom_type_oxidation_number
Fe0+ 0
Li0+ 0
Ge0+ 0
loop_
_atom_site_label
_atom_site_type_symbol
_atom_site_symmetry_multiplicity
_atom_site_Wyckoff_symbol
_atom_site_fract_x
_atom_site_fract_y
_atom_site_fract_z
_atom_site_B_iso_or_equiv
_atom_site_occupancy
_atom_site_attached_hydrogens
Fe1 Fe0+ 18 h 0.5 0.5 0.103 0.0086 1. 0
Li1 Li0+ 3 a 0 0 0 0.0127 1. 0
Ge1 Ge0+ 6 c 0 0 0.126 0.0104 1. 0
Ge2 Ge0+ 6 c 0 0 0.333 0.0131 1. 0
#End of TTdata_41381-ICSD