
#(C) 2017 by FIZ Karlsruhe - Leibniz Institute for Information Infrastructure.  All rights reserved.
data_413803-ICSD
_database_code_ICSD 413803
_audit_creation_date 2005-10-01
_chemical_name_systematic 'Calcium indide (2/1)'
_chemical_formula_structural 'Ca2 In'
_chemical_formula_sum 'Ca2 In1'
_chemical_name_structure_type Co2Si
_exptl_crystal_density_diffrn 3.32
_publ_section_title
'Neue Erdalkalimetall-reiche binaere Indide: Ca2 In, Sr28 In11 und Sr5 In3'
loop_
_citation_id
_citation_journal_full
_citation_year
_citation_journal_volume
_citation_page_first
_citation_page_last
_citation_journal_id_ASTM
primary 'Zeitschrift fuer Naturforschung, B: Chemical Sciences' 2004 59 619 628
ZNBSEN
loop_
_publ_author_name
'Wendorff, M.'
'Roehr, C.'
_cell_length_a 7.275(2)
_cell_length_b 5.3713(16)
_cell_length_c 9.990(3)
_cell_angle_alpha 90.
_cell_angle_beta 90.
_cell_angle_gamma 90.
_cell_volume 390.37
_cell_formula_units_Z 4
_symmetry_space_group_name_H-M 'P n m a'
_symmetry_Int_Tables_number 62
_refine_ls_R_factor_all 0.0283
loop_
_symmetry_equiv_pos_site_id
_symmetry_equiv_pos_as_xyz
1 'x+1/2, y, -z+1/2'
2 'x, -y+1/2, z'
3 '-x+1/2, y+1/2, z+1/2'
4 '-x, -y, -z'
5 '-x+1/2, -y, z+1/2'
6 '-x, y+1/2, -z'
7 'x+1/2, -y+1/2, -z+1/2'
8 'x, y, z'
loop_
_atom_type_symbol
_atom_type_oxidation_number
Ca0+ 0
In0+ 0
loop_
_atom_site_label
_atom_site_type_symbol
_atom_site_symmetry_multiplicity
_atom_site_Wyckoff_symbol
_atom_site_fract_x
_atom_site_fract_y
_atom_site_fract_z
_atom_site_B_iso_or_equiv
_atom_site_occupancy
_atom_site_attached_hydrogens
Ca1 Ca0+ 4 c 0.03433(14) 0.25 0.70169(11) 0.0190(3) 1 0
Ca2 Ca0+ 4 c 0.17390(17) 0.25 0.06482(11) 0.0204(3) 1 0
In1 In0+ 4 c 0.22444(6) 0.25 0.38657(4) 0.02083(19) 1 0
loop_
_atom_site_aniso_label
_atom_site_aniso_type_symbol
_atom_site_aniso_U_11
_atom_site_aniso_U_22
_atom_site_aniso_U_33
_atom_site_aniso_U_12
_atom_site_aniso_U_13
_atom_site_aniso_U_23
Ca1 Ca0+ 0.0137(5) 0.0219(6) 0.0214(5) 0. 0.0003(4) 0.
Ca2 Ca0+ 0.0281(6) 0.0170(6) 0.0161(5) 0. 0.0002(4) 0.
In1 In0+ 0.0276(3) 0.0167(3) 0.0182(3) 0. -0.00348(14) 0.
#End of TTdata_413803-ICSD