
data_414021-ICSD
_database_code_ICSD 414021
_audit_creation_date 2008-08-01
_chemical_name_systematic 'Copper pentacyanonitrosylferrate(II)'
_chemical_formula_structural 'Cu (Fe (C N)5 N O)'
_chemical_formula_sum 'C5 Cu1 Fe1 N6 O1'
_exptl_crystal_density_diffrn 1.68
_cell_length_a 7.1140(7)
_cell_length_b 7.1140(7)
_cell_length_c 10.9182(2)
_cell_angle_alpha 90.
_cell_angle_beta 90.
_cell_angle_gamma 90.
_cell_volume 552.56
_cell_formula_units_Z 2
_symmetry_space_group_name_H-M 'I 4 m m'
_symmetry_Int_Tables_number 107
_refine_ls_R_factor_all 0.0442
loop_
_symmetry_equiv_pos_site_id
_symmetry_equiv_pos_as_xyz
1 '-y, x, z'
2 'y, -x, z'
3 '-y, -x, z'
4 'y, x, z'
5 'x, -y, z'
6 '-x, y, z'
7 '-x, -y, z'
8 'x, y, z'
9 '-y+1/2, x+1/2, z+1/2'
10 'y+1/2, -x+1/2, z+1/2'
11 '-y+1/2, -x+1/2, z+1/2'
12 'y+1/2, x+1/2, z+1/2'
13 'x+1/2, -y+1/2, z+1/2'
14 '-x+1/2, y+1/2, z+1/2'
15 '-x+1/2, -y+1/2, z+1/2'
16 'x+1/2, y+1/2, z+1/2'
loop_
_atom_type_symbol
_atom_type_oxidation_number
Fe2+ 2
Cu2+ 2
C2+ 2
N3- -3
N3+ 3
O2- -2
loop_
_atom_site_label
_atom_site_type_symbol
_atom_site_symmetry_multiplicity
_atom_site_Wyckoff_symbol
_atom_site_fract_x
_atom_site_fract_y
_atom_site_fract_z
_atom_site_B_iso_or_equiv
_atom_site_occupancy
_atom_site_attached_hydrogens
Fe1 Fe2+ 2 a 0 0 0 1.03(11) 1. 0
Cu1 Cu2+ 2 a 0 0 -0.4777(4) 1.8(2) 1. 0
C1 C2+ 8 c 0.1914(3) 0.1914(3) -0.0028(15) 2.17(12) 1. 0
C2 C2+ 2 a 0 0 -0.1768(13) 2.17(12) 1. 0
N1 N3- 8 c 0.3052(3) 0.3052(3) -0.0026(12) 2.17(12) 1. 0
N2 N3- 2 a 0 0 -0.2827(3) 2.17(12) 1. 0
N3 N3+ 2 a 0 0 0.1511(2) 2.17(12) 1. 0
O1 O2- 2 a 0 0 0.2539(4) 2.17(12) 1. 0
