
#(C) 2017 by FIZ Karlsruhe - Leibniz Institute for Information Infrastructure.  All rights reserved.
data_414165-ICSD
_database_code_ICSD 414165
_audit_creation_date 2005-10-01
_chemical_name_systematic 'Dibarium diselenoditellurogermanate'
_chemical_formula_structural 'Ba2 (Ge Se2 Te2)'
_chemical_formula_sum 'Ba2 Ge1 Se2 Te2'
_chemical_name_structure_type K2ZnBr4
_exptl_crystal_density_diffrn 5.45
_cell_measurement_temperature 298.
_publ_section_title
'From yellow to black: new semiconducting Ba chalcogeno-germanates'
loop_
_citation_id
_citation_journal_full
_citation_year
_citation_journal_volume
_citation_page_first
_citation_page_last
_citation_journal_id_ASTM
primary 'Zeitschrift fuer Naturforschung, B: Chemical Sciences' 2004 59 975 979
ZNBSEN
loop_
_publ_author_name
'Assoud, A.'
'Soheilnia, N.'
'Kleinke, H.'
_cell_length_a 7.3212(8)
_cell_length_b 7.1909(8)
_cell_length_c 9.2853(11)
_cell_angle_alpha 90.
_cell_angle_beta 108.433(2)
_cell_angle_gamma 90.
_cell_volume 463.75
_cell_formula_units_Z 2
_symmetry_space_group_name_H-M 'P 1 21/m 1'
_symmetry_Int_Tables_number 11
_refine_ls_R_factor_all 0.0565
loop_
_symmetry_equiv_pos_site_id
_symmetry_equiv_pos_as_xyz
1 'x, -y+1/2, z'
2 '-x, -y, -z'
3 '-x, y+1/2, -z'
4 'x, y, z'
loop_
_atom_type_symbol
_atom_type_oxidation_number
Ba2+ 2
Ge4+ 4
Te2- -2
Se2- -2
loop_
_atom_site_label
_atom_site_type_symbol
_atom_site_symmetry_multiplicity
_atom_site_Wyckoff_symbol
_atom_site_fract_x
_atom_site_fract_y
_atom_site_fract_z
_atom_site_B_iso_or_equiv
_atom_site_occupancy
_atom_site_attached_hydrogens
Ba1 Ba2+ 2 e 0.21461(13) 0.25 0.55179(9) 0.0169(2) 1 0
Ba2 Ba2+ 2 e 0.24439(15) 0.25 0.06045(10) 0.0220(2) 1 0
Ge1 Ge4+ 2 e 0.7862(2) 0.25 0.70409(17) 0.0141(3) 1 0
Te1 Te2- 2 e 0.62101(16) 0.25 0.41838(11) 0.0234(3) 1 0
Te2 Te2- 2 e 0.59793(18) 0.25 0.88679(13) 0.0311(3) 1 0
Se1 Se2- 4 f 1.00214(15) 0.49511(14) 0.23956(11) 0.0168(2) 1 0
loop_
_atom_site_aniso_label
_atom_site_aniso_type_symbol
_atom_site_aniso_U_11
_atom_site_aniso_U_22
_atom_site_aniso_U_33
_atom_site_aniso_U_12
_atom_site_aniso_U_13
_atom_site_aniso_U_23
Ba1 Ba2+ 0.0193(4) 0.0176(4) 0.0146(4) 0. 0.0064(3) 0.
Ba2 Ba2+ 0.0303(5) 0.0200(5) 0.0158(4) 0. 0.0071(4) 0.
Ge1 Ge4+ 0.0131(7) 0.0124(7) 0.0167(6) 0. 0.0045(5) 0.
Te1 Te2- 0.0239(5) 0.0268(6) 0.0177(4) 0. 0.0040(4) 0.
Te2 Te2- 0.0263(6) 0.0387(7) 0.0313(6) 0. 0.0136(5) 0.
Se1 Se2- 0.0196(5) 0.0111(5) 0.0194(5) -0.0011(4) 0.0056(4) -0.0006(4)
#End of TTdata_414165-ICSD