
#(C) 2017 by FIZ Karlsruhe - Leibniz Institute for Information Infrastructure.  All rights reserved.
data_414175-ICSD
_database_code_ICSD 414175
_audit_creation_date 2005-10-01
_audit_update_record 2008-02-01
_chemical_name_systematic 'Hexalanthanum pentaiodide trigermanide'
_chemical_formula_structural 'La6 I5 Ge3'
_chemical_formula_sum 'Ge3 I5 La6'
_chemical_name_structure_type Gd6C3Cl5
_exptl_crystal_density_diffrn 5.59
_publ_section_title

;
Reduced lanthanum halides with Ge as interstitials: La2 I2 Ge, La2 I2 Ge2, La3
Cl2 Ge3, La3 Br2 Ge3, La3 I3 Ge, La6 I5 Ge3 and La(7+x) I12 Ge
;
loop_
_citation_id
_citation_journal_full
_citation_year
_citation_journal_volume
_citation_page_first
_citation_page_last
_citation_journal_id_ASTM
primary 'Zeitschrift fuer Anorganische und Allgemeine Chemie (1950) (DE)' 2005
631 302 308 ZAACAB
loop_
_publ_author_name
'Mattausch, H.J.'
'Zheng, C.'
'Ryazanov, M.'
'Simon, A.'
_cell_length_a 19.338(4)
_cell_length_b 4.4230(10)
_cell_length_c 14.895(3)
_cell_angle_alpha 90.
_cell_angle_beta 128.16(3)
_cell_angle_gamma 90.
_cell_volume 1001.73
_cell_formula_units_Z 2
_symmetry_space_group_name_H-M 'C 1 2/m 1'
_symmetry_Int_Tables_number 12
_refine_ls_R_factor_all 0.0251
loop_
_symmetry_equiv_pos_site_id
_symmetry_equiv_pos_as_xyz
1 '-x, y, -z'
2 '-x, -y, -z'
3 'x, -y, z'
4 'x, y, z'
5 '-x+1/2, y+1/2, -z'
6 '-x+1/2, -y+1/2, -z'
7 'x+1/2, -y+1/2, z'
8 'x+1/2, y+1/2, z'
loop_
_atom_type_symbol
_atom_type_oxidation_number
La3+ 3
I1- -1
Ge4- -4.333
loop_
_atom_site_label
_atom_site_type_symbol
_atom_site_symmetry_multiplicity
_atom_site_Wyckoff_symbol
_atom_site_fract_x
_atom_site_fract_y
_atom_site_fract_z
_atom_site_B_iso_or_equiv
_atom_site_occupancy
_atom_site_attached_hydrogens
La1 La3+ 4 i 0.683745(10) 0. 0.552924(13) 0.00764(4) 1 0
La2 La3+ 4 i 0.049279(11) 0. 0.670062(14) 0.00879(4) 1 0
La3 La3+ 4 i 0.432658(11) 0. 0.790733(14) 0.00846(4) 1 0
I1 I1- 4 i 0.631634(14) 0. 0.881156(18) 0.01416(5) 1 0
I2 I1- 4 i 0.254585(13) 0. 0.764868(18) 0.01263(4) 1 0
I3 I1- 2 a 0. 0. 0. 0.02212(8) 1 0
Ge1 Ge4- 4 i 0.12737(2) 0. 0.37505(3) 0.00788(6) 1 0
Ge2 Ge4- 2 d 0. 0.5 0.5 0.00802(7) 1 0
loop_
_atom_site_aniso_label
_atom_site_aniso_type_symbol
_atom_site_aniso_U_11
_atom_site_aniso_U_22
_atom_site_aniso_U_33
_atom_site_aniso_U_12
_atom_site_aniso_U_13
_atom_site_aniso_U_23
La1 La3+ 0.00744(6) 0.00766(7) 0.00746(6) 0. 0.00443(5) 0.
La2 La3+ 0.00848(6) 0.00936(8) 0.00915(7) 0. 0.00576(5) 0.
La3 La3+ 0.00944(6) 0.00754(7) 0.00790(6) 0. 0.00510(5) 0.
I1 I1- 0.01174(8) 0.01536(10) 0.01300(8) 0. 0.00646(7) 0.
I2 I1- 0.00968(8) 0.01620(10) 0.01341(8) 0. 0.00784(6) 0.
I3 I1- 0.0412(2) 0.00980(14) 0.01003(11) 0. 0.01319(13) 0.
Ge1 Ge4- 0.00804(11) 0.00747(13) 0.00921(12) 0. 0.00587(10) 0.
Ge2 Ge4- 0.00786(15) 0.00716(18) 0.00939(16) 0. 0.00550(13) 0.
#End of TTdata_414175-ICSD