
#(C) 2017 by FIZ Karlsruhe - Leibniz Institute for Information Infrastructure.  All rights reserved.
data_41431-ICSD
_database_code_ICSD 41431
_audit_creation_date 1999-11-30
_audit_update_record 2003-04-01
_chemical_name_systematic 'Dipotassium tetrahydroxopalladate'
_chemical_formula_structural 'K2 (Pd (O H)4)'
_chemical_formula_sum 'H4 K2 O4 Pd1'
_exptl_crystal_density_diffrn 3.28
_publ_section_title 'Structure of dipotassium tetrahydroxopalladate(II)'
loop_
_citation_id
_citation_journal_full
_citation_year
_citation_journal_volume
_citation_page_first
_citation_page_last
_citation_journal_id_ASTM
primary 'Koordinatsionnaya Khimiya (= Coordination Chemistry (USSR))' 1987 13
1660 1661 KOKHDC
loop_
_publ_author_name
'Il'inets, A.M.'
'Ivanov-Emin, B.N.'
'Petrishcheva, L.P.'
'Izmailovich, A.S.'
_cell_length_a 5.561(3)
_cell_length_b 6.947(3)
_cell_length_c 6.763(2)
_cell_angle_alpha 90.
_cell_angle_beta 90.
_cell_angle_gamma 102.13(4)
_cell_volume 255.44
_cell_formula_units_Z 2
_symmetry_space_group_name_H-M 'P 1 1 21/b'
_symmetry_Int_Tables_number 14
loop_
_symmetry_equiv_pos_site_id
_symmetry_equiv_pos_as_xyz
1 'x, y+1/2, -z+1/2'
2 '-x, -y, -z'
3 '-x, -y+1/2, z+1/2'
4 'x, y, z'
loop_
_atom_type_symbol
_atom_type_oxidation_number
Pd2+ 2
K1+ 1
O2- -2
H1+ 1
loop_
_atom_site_label
_atom_site_type_symbol
_atom_site_symmetry_multiplicity
_atom_site_Wyckoff_symbol
_atom_site_fract_x
_atom_site_fract_y
_atom_site_fract_z
_atom_site_B_iso_or_equiv
_atom_site_occupancy
_atom_site_attached_hydrogens
Pd1 Pd2+ 2 b 0.5 0.5 0 0.4(4) 1. 0
K1 K1+ 4 e 0.888(1) 0.708(1) 0.578(1) 1.1(4) 1. 0
O1 O2- 4 e 0.352(4) 0.216(3) 0.066(4) 0.9(4) 1. 0
O2 O2- 4 e 0.263(4) 0.491(3) 0.791(3) 0.9(4) 1. 0
#End of TTdata_41431-ICSD