
#(C) 2017 by FIZ Karlsruhe - Leibniz Institute for Information Infrastructure.  All rights reserved.
data_41459-ICSD
_database_code_ICSD 41459
_audit_creation_date 2002-04-01
_audit_update_record 2006-04-01
_chemical_name_systematic 'Lithium cobalt germanide (1/6/6)'
_chemical_formula_structural 'Li Co6 Ge6'
_chemical_formula_sum 'Co6 Ge6 Li1'
_chemical_name_structure_type Fe6Ge6Mg
_exptl_crystal_density_diffrn 7.75
_publ_section_title

;
Intermetallische Phasen mit B35-Ueberstruktur und Verwandtschaftsbeziehung zu
Li Fe6 Ge6
;
loop_
_citation_id
_citation_journal_full
_citation_year
_citation_journal_volume
_citation_page_first
_citation_page_last
_citation_journal_id_ASTM
primary 'Zeitschrift fuer Anorganische und Allgemeine Chemie (1950) (DE)' 1981
482 40 48 ZAACAB
loop_
_publ_author_name
'Buchholz, W.'
'Schuster, H.U.'
_cell_length_a 5.048
_cell_length_b 5.048
_cell_length_c 7.729
_cell_angle_alpha 90.
_cell_angle_beta 90.
_cell_angle_gamma 120.
_cell_volume 170.57
_cell_formula_units_Z 1
_symmetry_space_group_name_H-M 'P 6/m m m'
_symmetry_Int_Tables_number 191
_refine_ls_R_factor_all 0.108
loop_
_symmetry_equiv_pos_site_id
_symmetry_equiv_pos_as_xyz
1 '-x, -x+y, -z'
2 'x-y, -y, -z'
3 'y, x, -z'
4 '-x+y, -x, -z'
5 '-y, x-y, -z'
6 'x, y, -z'
7 'x, x-y, -z'
8 '-x+y, y, -z'
9 '-y, -x, -z'
10 'x-y, x, -z'
11 'y, -x+y, -z'
12 '-x, -y, -z'
13 'x, x-y, z'
14 '-x+y, y, z'
15 '-y, -x, z'
16 'x-y, x, z'
17 'y, -x+y, z'
18 '-x, -y, z'
19 '-x, -x+y, z'
20 'x-y, -y, z'
21 'y, x, z'
22 '-x+y, -x, z'
23 '-y, x-y, z'
24 'x, y, z'
loop_
_atom_type_symbol
_atom_type_oxidation_number
Li0+ 0
Co0+ 0
Ge0+ 0
loop_
_atom_site_label
_atom_site_type_symbol
_atom_site_symmetry_multiplicity
_atom_site_Wyckoff_symbol
_atom_site_fract_x
_atom_site_fract_y
_atom_site_fract_z
_atom_site_B_iso_or_equiv
_atom_site_occupancy
_atom_site_attached_hydrogens
Li1 Li0+ 1 a 0 0 0 0.012(19) 1. 0
Co1 Co0+ 6 i 0.5 0 0.2498(4) 0.0049(5) 1. 0
Ge1 Ge0+ 2 e 0 0 0.3343(6) 0.0055(6) 1. 0
Ge2 Ge0+ 2 c 0.3333 0.6667 0 0.0047(6) 1. 0
Ge3 Ge0+ 2 d 0.3333 0.6667 0.5 0.0046(6) 1. 0
#End of TTdata_41459-ICSD