
#(C) 2017 by FIZ Karlsruhe - Leibniz Institute for Information Infrastructure.  All rights reserved.
data_41539-ICSD
_database_code_ICSD 41539
_audit_creation_date 1999-11-30
_chemical_name_systematic 'Hexazirconium dodecachloride'
_chemical_formula_structural 'Zr6 Cl12'
_chemical_formula_sum 'Cl12 Zr6'
_chemical_name_structure_type Zr6I12
_exptl_crystal_density_diffrn 3.79
_publ_section_title

;
Synthesis by hydrogen-driven disproportionation reactions. Synthesis and
structure of the hexazirconium dodecahalide clusters Zr6 Cl12 and Zr6 Br12 and
the double salt Zr6 Cl12 M2 Zr Cl6 (M= Na, K, Cs)
;
loop_
_citation_id
_citation_journal_full
_citation_year
_citation_journal_volume
_citation_page_first
_citation_page_last
_citation_journal_id_ASTM
primary 'Inorganic Chemistry' 1981 20 145 151 INOCAJ
loop_
_publ_author_name
'Imoto, H.'
'Corbett, J.D.'
'Cisar, A.'
_cell_length_a 12.973(1)
_cell_length_b 12.973(1)
_cell_length_c 8.782(1)
_cell_angle_alpha 90.
_cell_angle_beta 90.
_cell_angle_gamma 120.
_cell_volume 1279.99
_cell_formula_units_Z 3
_symmetry_space_group_name_H-M 'R -3 H'
_symmetry_Int_Tables_number 148
loop_
_symmetry_equiv_pos_site_id
_symmetry_equiv_pos_as_xyz
1 'x-y, x, -z'
2 'y, -x+y, -z'
3 '-x, -y, -z'
4 '-x+y, -x, z'
5 '-y, x-y, z'
6 'x, y, z'
7 'x-y+2/3, x+1/3, -z+1/3'
8 'y+2/3, -x+y+1/3, -z+1/3'
9 '-x+2/3, -y+1/3, -z+1/3'
10 '-x+y+2/3, -x+1/3, z+1/3'
11 '-y+2/3, x-y+1/3, z+1/3'
12 'x+2/3, y+1/3, z+1/3'
13 'x-y+1/3, x+2/3, -z+2/3'
14 'y+1/3, -x+y+2/3, -z+2/3'
15 '-x+1/3, -y+2/3, -z+2/3'
16 '-x+y+1/3, -x+2/3, z+2/3'
17 '-y+1/3, x-y+2/3, z+2/3'
18 'x+1/3, y+2/3, z+2/3'
loop_
_atom_type_symbol
_atom_type_oxidation_number
Zr2+ 2
Cl1- -1
loop_
_atom_site_label
_atom_site_type_symbol
_atom_site_symmetry_multiplicity
_atom_site_Wyckoff_symbol
_atom_site_fract_x
_atom_site_fract_y
_atom_site_fract_z
_atom_site_B_iso_or_equiv
_atom_site_occupancy
_atom_site_attached_hydrogens
Zr1 Zr2+ 18 f 0.159 0.043 0.149 0.8 1. 0
Cl1 Cl1- 18 f 0.127 0.174 0.332 1.5 1. 0
Cl2 Cl1- 18 f 0.31 0.228 0 1.5 1. 0
#End of TTdata_41539-ICSD