
#(C) 2017 by FIZ Karlsruhe - Leibniz Institute for Information Infrastructure.  All rights reserved.
data_415406-ICSD
_database_code_ICSD 415406
_audit_creation_date 2007-08-01
_chemical_name_systematic 'Copper squarate'
_chemical_formula_structural 'Cu (C4 O4)'
_chemical_formula_sum 'C4 Cu1 O4'
_exptl_crystal_density_diffrn 2.43
_cell_measurement_temperature 298.
_publ_section_title

;
Anhydrous Cu C4 O4, a channel structure solved from X-ray powder diffraction
data
;
loop_
_citation_id
_citation_journal_full
_citation_year
_citation_journal_volume
_citation_page_first
_citation_page_last
_citation_journal_id_ASTM
primary 'Zeitschrift fuer Anorganische und Allgemeine Chemie (1950) (DE)' 2005
631 2328 2332 ZAACAB
loop_
_publ_author_name
'Dinnebier, R.E.'
'Nuss, H.'
'Jansen, M.'
_cell_length_a 5.67467(14)
_cell_length_b 8.9394(4)
_cell_length_c 9.4987(4)
_cell_angle_alpha 90.
_cell_angle_beta 94.3724(21)
_cell_angle_gamma 90.
_cell_volume 480.45
_cell_formula_units_Z 4
_symmetry_space_group_name_H-M 'I 1 2/a 1'
_symmetry_Int_Tables_number 15
_refine_ls_R_factor_all 0.0606
loop_
_symmetry_equiv_pos_site_id
_symmetry_equiv_pos_as_xyz
1 'x+1/2, -y, z'
2 '-x, -y, -z'
3 '-x+1/2, y, -z'
4 'x, y, z'
5 'x, -y+1/2, z+1/2'
6 '-x+1/2, -y+1/2, -z+1/2'
7 '-x, y+1/2, -z+1/2'
8 'x+1/2, y+1/2, z+1/2'
loop_
_atom_type_symbol
_atom_type_oxidation_number
Cu2+ 2
C1+ 1.5
O2- -2
loop_
_atom_site_label
_atom_site_type_symbol
_atom_site_symmetry_multiplicity
_atom_site_Wyckoff_symbol
_atom_site_fract_x
_atom_site_fract_y
_atom_site_fract_z
_atom_site_B_iso_or_equiv
_atom_site_occupancy
_atom_site_attached_hydrogens
Cu1 Cu2+ 4 e 0.25 0.59302(19) 0.5 0.03448 1. 0
C1 C1+ 8 f 0.90756(34) 0.74550(15) 0.30990(17) 0.0129(9) 1. 0
C2 C1+ 8 f 0.81459(25) 0.83412(20) 0.19082(15) 0.0129(9) 1. 0
O1 O2- 8 f 1.0976(4) 0.74007(33) 0.38215(26) 0.0129(9) 1. 0
O2 O2- 8 f 0.8925(4) 0.93558(29) 0.11944(23) 0.0129(9) 1. 0
loop_
_atom_site_aniso_label
_atom_site_aniso_type_symbol
_atom_site_aniso_U_11
_atom_site_aniso_U_22
_atom_site_aniso_U_33
_atom_site_aniso_U_12
_atom_site_aniso_U_13
_atom_site_aniso_U_23
Cu1 Cu2+ 0.0500(13) 0.0170(11) 0.0346(14) 0. -0.0089(9) 0.
#End of TTdata_415406-ICSD