
#(C) 2017 by FIZ Karlsruhe - Leibniz Institute for Information Infrastructure.  All rights reserved.
data_415576-ICSD
_database_code_ICSD 415576
_audit_creation_date 2007-04-01
_chemical_name_systematic 'Strontium indium bismuth (5/2/6)'
_chemical_formula_structural 'Sr5 In2 Bi6'
_chemical_formula_sum 'Bi6 In2 Sr5'
_chemical_name_structure_type Al2Ca5Bi6
_exptl_crystal_density_diffrn 6.99
_publ_section_title
'Synthesis and Crystal Structure of a New Zintl Phase Sr5 In2 Bi6'
loop_
_citation_id
_citation_journal_full
_citation_year
_citation_journal_volume
_citation_page_first
_citation_page_last
_citation_journal_id_ASTM
primary 'Journal of Alloys and Compounds' 2006 421 190 194 JALCEU
loop_
_publ_author_name
'Sun Zhongming'
'Mao Jiang Gao'
'Pan Dachun'
_cell_length_a 24.450(3)
_cell_length_b 7.8800(8)
_cell_length_c 4.7400(5)
_cell_angle_alpha 90.
_cell_angle_beta 90.
_cell_angle_gamma 90.
_cell_volume 913.24
_cell_formula_units_Z 2
_symmetry_space_group_name_H-M 'P b a m'
_symmetry_Int_Tables_number 55
_refine_ls_R_factor_all 0.047
loop_
_symmetry_equiv_pos_site_id
_symmetry_equiv_pos_as_xyz
1 'x+1/2, -y+1/2, z'
2 '-x+1/2, y+1/2, z'
3 'x, y, -z'
4 '-x, -y, -z'
5 '-x+1/2, y+1/2, -z'
6 'x+1/2, -y+1/2, -z'
7 '-x, -y, z'
8 'x, y, z'
loop_
_atom_type_symbol
_atom_type_oxidation_number
Sr0+ 0
In0+ 0
Bi0+ 0
loop_
_atom_site_label
_atom_site_type_symbol
_atom_site_symmetry_multiplicity
_atom_site_Wyckoff_symbol
_atom_site_fract_x
_atom_site_fract_y
_atom_site_fract_z
_atom_site_B_iso_or_equiv
_atom_site_occupancy
_atom_site_attached_hydrogens
Sr1 Sr0+ 2 c 0. 0.5 0. 0.0107(6) 1 0
Sr2 Sr0+ 4 g 0.74510(7) 0.7752(2) 0. 0.0107(4) 1 0
Sr3 Sr0+ 4 g 0.08814(8) 0.0316(3) 0. 0.0122(4) 1 0
In1 In0+ 4 h 0.87959(6) 0.32606(19) 0.5 0.0128(4) 1 0
Bi1 Bi0+ 4 h 0.49809(3) 0.29961(10) 0.5 0.0111(3) 1 0
Bi2 Bi0+ 4 h 0.31164(3) 0.48483(10) 0.5 0.0101(3) 1 0
Bi3 Bi0+ 4 g 0.86387(3) 0.54517(10) 0. 0.0111(3) 1 0
loop_
_atom_site_aniso_label
_atom_site_aniso_type_symbol
_atom_site_aniso_U_11
_atom_site_aniso_U_22
_atom_site_aniso_U_33
_atom_site_aniso_U_12
_atom_site_aniso_U_13
_atom_site_aniso_U_23
Sr1 Sr0+ 0.0060(12) 0.0081(13) 0.0180(17) -0.0004(10) 0. 0.
Sr2 Sr0+ 0.0069(8) 0.0067(9) 0.0184(12) 0.0001(7) 0. 0.
Sr3 Sr0+ 0.0054(9) 0.0156(10) 0.0155(11) 0.0010(8) 0. 0.
In1 In0+ 0.0118(7) 0.0124(8) 0.0142(8) -0.0005(6) 0. 0.
Bi1 Bi0+ 0.0104(4) 0.0107(4) 0.0123(5) -0.0016(3) 0. 0.
Bi2 Bi0+ 0.0082(4) 0.0120(4) 0.0101(5) 0.0028(3) 0. 0.
Bi3 Bi0+ 0.0048(4) 0.0095(4) 0.0190(5) -0.0007(3) 0. 0.
#End of TTdata_415576-ICSD