
data_41589-ICSD
_database_code_ICSD 41589
_audit_creation_date 1999-11-30
_audit_update_record 2003-10-01
_chemical_name_systematic 'Antimony sulfide iodide - LT'
_chemical_formula_structural 'Sb S I'
_chemical_formula_sum 'I1 S1 Sb1'
_chemical_name_structure_type SbSI
_exptl_crystal_density_diffrn 5.26
_cell_measurement_temperature 274.
_cell_length_a 8.53
_cell_length_b 10.14
_cell_length_c 4.1
_cell_angle_alpha 90.
_cell_angle_beta 90.
_cell_angle_gamma 90.
_cell_volume 354.63
_cell_formula_units_Z 4
_symmetry_space_group_name_H-M 'P n a 21'
_symmetry_Int_Tables_number 33
_refine_ls_R_factor_all 0.03
loop_
_symmetry_equiv_pos_site_id
_symmetry_equiv_pos_as_xyz
1 'x+1/2, -y+1/2, z'
2 '-x+1/2, y+1/2, z+1/2'
3 '-x, -y, z+1/2'
4 'x, y, z'
loop_
_atom_type_symbol
_atom_type_oxidation_number
Sb3+ 3
S2- -2
I1- -1
loop_
_atom_site_label
_atom_site_type_symbol
_atom_site_symmetry_multiplicity
_atom_site_Wyckoff_symbol
_atom_site_fract_x
_atom_site_fract_y
_atom_site_fract_z
_atom_site_B_iso_or_equiv
_atom_site_occupancy
_atom_site_attached_hydrogens
Sb1 Sb3+ 4 a 0.1202 0.1234 0.2752 . 1. 0
S1 S2- 4 a 0.845 0.0472 0.2547 . 1. 0
I2 I1- 4 a 0.5085 0.8284 0.25 . 1. 0
