
#(C) 2017 by FIZ Karlsruhe - Leibniz Institute for Information Infrastructure.  All rights reserved.
data_416325-ICSD
_database_code_ICSD 416325
_audit_creation_date 2007-08-01
_chemical_name_systematic 'Strontium discandium telluride'
_chemical_formula_structural 'Sr Sc2 Te4'
_chemical_formula_sum 'Sc2 Sr1 Te4'
_chemical_name_structure_type CaFe2O4
_exptl_crystal_density_diffrn 5.33
_cell_measurement_temperature 298.
_publ_section_title

;
Thermoelectric properties of the new tellurides Sr Sc2 Te4 and Ba Sc2 Te4 in
comparison to Ba Y2 Te4
;
loop_
_citation_id
_citation_journal_full
_citation_year
_citation_journal_volume
_citation_page_first
_citation_page_last
_citation_journal_id_ASTM
primary Intermetallics 2007 15 371 376 IERME5
loop_
_publ_author_name
'Assoud, A.'
'Soheilnia, N.'
'Kleinke, H.'
_cell_length_a 13.1795(17)
_cell_length_b 4.2323(7)
_cell_length_c 15.367(2)
_cell_angle_alpha 90.
_cell_angle_beta 90.
_cell_angle_gamma 90.
_cell_volume 857.17
_cell_formula_units_Z 4
_symmetry_space_group_name_H-M 'P n m a'
_symmetry_Int_Tables_number 62
_refine_ls_R_factor_all 0.04
loop_
_symmetry_equiv_pos_site_id
_symmetry_equiv_pos_as_xyz
1 'x+1/2, y, -z+1/2'
2 'x, -y+1/2, z'
3 '-x+1/2, y+1/2, z+1/2'
4 '-x, -y, -z'
5 '-x+1/2, -y, z+1/2'
6 '-x, y+1/2, -z'
7 'x+1/2, -y+1/2, -z+1/2'
8 'x, y, z'
loop_
_atom_type_symbol
_atom_type_oxidation_number
Sr2+ 2
Sc3+ 3
Te2- -2
loop_
_atom_site_label
_atom_site_type_symbol
_atom_site_symmetry_multiplicity
_atom_site_Wyckoff_symbol
_atom_site_fract_x
_atom_site_fract_y
_atom_site_fract_z
_atom_site_B_iso_or_equiv
_atom_site_occupancy
_atom_site_attached_hydrogens
Sr1 Sr2+ 4 c 0.23813(8) 0.25 0.67213(6) 0.0142(2) 1 0
Sc1 Sc3+ 4 c 0.08414(14) 0.25 0.40548(11) 0.0116(4) 1 0
Sc2 Sc3+ 4 c 0.55442(15) 0.25 0.61160(10) 0.0113(4) 1 0
Te1 Te2- 4 c 0.09290(5) 0.25 0.07361(4) 0.01058(17) 1 0
Te2 Te2- 4 c 0.29756(5) 0.25 0.34215(4) 0.01131(18) 1 0
Te3 Te2- 4 c 0.37565(5) 0.25 0.03172(3) 0.01065(18) 1 0
Te4 Te2- 4 c 0.46886(5) 0.25 0.78557(3) 0.01167(17) 1 0
loop_
_atom_site_aniso_label
_atom_site_aniso_type_symbol
_atom_site_aniso_U_11
_atom_site_aniso_U_22
_atom_site_aniso_U_33
_atom_site_aniso_U_12
_atom_site_aniso_U_13
_atom_site_aniso_U_23
Sr1 Sr2+ 0.0174(6) 0.0098(4) 0.0155(4) 0. 0.0006(3) 0.
Sc1 Sc3+ 0.0136(11) 0.0091(7) 0.0122(7) 0. -0.0005(6) 0.
Sc2 Sc3+ 0.0127(10) 0.0101(7) 0.0112(7) 0. -0.0001(6) 0.
Te1 Te2- 0.0116(4) 0.0086(3) 0.0115(3) 0. -0.0006(2) 0.
Te2 Te2- 0.0104(4) 0.0080(3) 0.0155(3) 0. -0.0001(2) 0.
Te3 Te2- 0.0122(4) 0.0078(3) 0.0120(3) 0. 0.0013(2) 0.
Te4 Te2- 0.0160(4) 0.0097(3) 0.0092(3) 0. 0.0016(2) 0.
#End of TTdata_416325-ICSD