
#(C) 2017 by FIZ Karlsruhe - Leibniz Institute for Information Infrastructure.  All rights reserved.
data_416818-ICSD
_database_code_ICSD 416818
_audit_creation_date 2007-08-01
_chemical_name_systematic 'Trilanthanum trinickel zinc'
_chemical_formula_structural 'La3 Ni3 Zn'
_chemical_formula_sum 'La3 Ni3 Zn1'
_chemical_name_structure_type Er3Ge4
_exptl_crystal_density_diffrn 7.27
_publ_section_title

;
Crystal Structure Investigation of RE-Ni-Zn Ternary Compounds (RE = La, Ce,
Tb)
;
loop_
_citation_id
_citation_journal_full
_citation_year
_citation_journal_volume
_citation_page_first
_citation_page_last
_citation_journal_id_ASTM
primary 'Zeitschrift fuer Anorganische und Allgemeine Chemie (1950) (DE)' 2007
633 482 489 ZAACAB
loop_
_publ_author_name
'Solokha, P.'
'de Negri, S.'
'Saccone, A.'
'Pavlyuk, V.'
'Tedenac, J.C.'
_cell_length_a 4.2759(9)
_cell_length_b 10.310(2)
_cell_length_c 13.636(3)
_cell_angle_alpha 90.
_cell_angle_beta 90.
_cell_angle_gamma 90.
_cell_volume 601.14
_cell_formula_units_Z 4
_symmetry_space_group_name_H-M 'C m c m'
_symmetry_Int_Tables_number 63
_refine_ls_R_factor_all 0.033
loop_
_symmetry_equiv_pos_site_id
_symmetry_equiv_pos_as_xyz
1 '-x, y, -z+1/2'
2 '-x, -y, z+1/2'
3 '-x, y, z'
4 '-x, -y, -z'
5 'x, -y, z+1/2'
6 'x, y, -z+1/2'
7 'x, -y, -z'
8 'x, y, z'
9 '-x+1/2, y+1/2, -z+1/2'
10 '-x+1/2, -y+1/2, z+1/2'
11 '-x+1/2, y+1/2, z'
12 '-x+1/2, -y+1/2, -z'
13 'x+1/2, -y+1/2, z+1/2'
14 'x+1/2, y+1/2, -z+1/2'
15 'x+1/2, -y+1/2, -z'
16 'x+1/2, y+1/2, z'
loop_
_atom_type_symbol
_atom_type_oxidation_number
Zn0+ 0
Ni0+ 0
La0+ 0
Ni0+ 0
loop_
_atom_site_label
_atom_site_type_symbol
_atom_site_symmetry_multiplicity
_atom_site_Wyckoff_symbol
_atom_site_fract_x
_atom_site_fract_y
_atom_site_fract_z
_atom_site_B_iso_or_equiv
_atom_site_occupancy
_atom_site_attached_hydrogens
Zn1 Zn0+ 4 a 0. 0. 0. 0.0119(4) 1 0
Ni1 Ni0+ 8 f 0. 0.57270(13) 0.08568(10) 0.0088(3) 1 0
La1 La0+ 8 f 0. 0.28702(5) 0.10395(4) 0.0076(2) 1 0
La2 La0+ 4 c 0. 0.00429(8) 0.25 0.0078(2) 1 0
Ni2 Ni0+ 4 c 0. 0.70388(19) 0.25 0.0143(4) 1 0
loop_
_atom_site_aniso_label
_atom_site_aniso_type_symbol
_atom_site_aniso_U_11
_atom_site_aniso_U_22
_atom_site_aniso_U_33
_atom_site_aniso_U_12
_atom_site_aniso_U_13
_atom_site_aniso_U_23
Zn1 Zn0+ 0.0121(8) 0.0106(8) 0.0129(8) 0. 0. -0.0005(6)
Ni1 Ni0+ 0.0089(6) 0.0082(6) 0.0093(6) 0. 0. 0.0006(5)
La1 La0+ 0.0093(3) 0.0062(3) 0.0072(3) 0. 0. 0.00043(17)
La2 La0+ 0.0089(4) 0.0060(4) 0.0084(4) 0. 0. 0.
Ni2 Ni0+ 0.0128(8) 0.0159(9) 0.0142(8) 0. 0. 0.
#End of TTdata_416818-ICSD