
data_41686-ICSD
_database_code_ICSD 41686
_audit_creation_date 1999-11-30
_audit_update_record 2012-02-01
_chemical_name_systematic 'Sodium palladium silicide (1/3/2)'
_chemical_formula_structural 'Na Pd3 Si2'
_chemical_formula_sum 'Na1 Pd3 Si2'
_exptl_crystal_density_diffrn 6.76
_cell_length_a 5.685(1)
_cell_length_b 9.764(1)
_cell_length_c 7.047(1)
_cell_angle_alpha 90.
_cell_angle_beta 90.
_cell_angle_gamma 90.
_cell_volume 391.17
_cell_formula_units_Z 4
_symmetry_space_group_name_H-M 'I 2 m m'
_symmetry_Int_Tables_number 44
_refine_ls_R_factor_all 0.058
loop_
_symmetry_equiv_pos_site_id
_symmetry_equiv_pos_as_xyz
1 'x, -y, z'
2 'x, y, -z'
3 'x, -y, -z'
4 'x, y, z'
5 'x+1/2, -y+1/2, z+1/2'
6 'x+1/2, y+1/2, -z+1/2'
7 'x+1/2, -y+1/2, -z+1/2'
8 'x+1/2, y+1/2, z+1/2'
loop_
_atom_type_symbol
_atom_type_oxidation_number
Na0+ 0
Pd0+ 0
Si0+ 0
loop_
_atom_site_label
_atom_site_type_symbol
_atom_site_symmetry_multiplicity
_atom_site_Wyckoff_symbol
_atom_site_fract_x
_atom_site_fract_y
_atom_site_fract_z
_atom_site_B_iso_or_equiv
_atom_site_occupancy
_atom_site_attached_hydrogens
Na1 Na0+ 2 a 0.956(8) 0 0 0.017(7) 1. 0
Na2 Na0+ 2 b 0.021(8) 0 0.5 0.0090(52) 1. 0
Pd1 Pd0+ 4 d 0.503(2) 0 0.280(1) 0.0076(5) 1. 0
Pd2 Pd0+ 8 e 0.245(2) 0.25 0.299(1) 0.0059(3) 1. 0
Si1 Si0+ 4 c 0.0700(5) 0.3110(5) 0 0.0025(22) 1. 0
Si2 Si0+ 4 c 0.4390(5) 0.1560(5) 0 0.0041(23) 1. 0
