
#(C) 2017 by FIZ Karlsruhe - Leibniz Institute for Information Infrastructure.  All rights reserved.
data_417001-ICSD
_database_code_ICSD 417001
_audit_creation_date 2008-02-01
_chemical_name_systematic 'Strontium dirhodium diarsenide - beta'
_chemical_formula_structural 'Sr Rh2 As2'
_chemical_formula_sum 'As2 Rh2 Sr1'
_chemical_name_structure_type SrFe2As2
_exptl_crystal_density_diffrn 7.42
_cell_measurement_temperature 523.
_publ_section_title

;
Neue Arsenide mit Th Cr2 Si2- oder einer damit verwandten Struktur: Die
Verbindungen A Rh2 As2 (A: Eu,Sr,Ba) und Ba Zn2 As2
;
loop_
_citation_id
_citation_journal_full
_citation_year
_citation_journal_volume
_citation_page_first
_citation_page_last
_citation_journal_id_ASTM
primary 'Zeitschrift fuer Naturforschung, B: Chemical Sciences' 2007 62 155 161
ZNBSEN
loop_
_publ_author_name
'Hellmann, A.'
'Loehken, A.'
'Wurth, A.'
'Mewis, A.'
_cell_length_a 5.760(3)
_cell_length_b 6.067(4)
_cell_length_c 11.264(5)
_cell_angle_alpha 90.
_cell_angle_beta 90.
_cell_angle_gamma 90.
_cell_volume 393.63
_cell_formula_units_Z 4
_symmetry_space_group_name_H-M 'F m m m'
_symmetry_Int_Tables_number 69
_refine_ls_R_factor_all 0.169
loop_
_symmetry_equiv_pos_site_id
_symmetry_equiv_pos_as_xyz
1 'x, y, -z'
2 'x, -y, z'
3 '-x, y, z'
4 '-x, -y, -z'
5 '-x, -y, z'
6 '-x, y, -z'
7 'x, -y, -z'
8 'x, y, z'
9 'x, y+1/2, -z+1/2'
10 'x, -y+1/2, z+1/2'
11 '-x, y+1/2, z+1/2'
12 '-x, -y+1/2, -z+1/2'
13 '-x, -y+1/2, z+1/2'
14 '-x, y+1/2, -z+1/2'
15 'x, -y+1/2, -z+1/2'
16 'x, y+1/2, z+1/2'
17 'x+1/2, y, -z+1/2'
18 'x+1/2, -y, z+1/2'
19 '-x+1/2, y, z+1/2'
20 '-x+1/2, -y, -z+1/2'
21 '-x+1/2, -y, z+1/2'
22 '-x+1/2, y, -z+1/2'
23 'x+1/2, -y, -z+1/2'
24 'x+1/2, y, z+1/2'
25 'x+1/2, y+1/2, -z'
26 'x+1/2, -y+1/2, z'
27 '-x+1/2, y+1/2, z'
28 '-x+1/2, -y+1/2, -z'
29 '-x+1/2, -y+1/2, z'
30 '-x+1/2, y+1/2, -z'
31 'x+1/2, -y+1/2, -z'
32 'x+1/2, y+1/2, z'
loop_
_atom_type_symbol
_atom_type_oxidation_number
Sr0+ 0
As0+ 0
Rh0+ 0
loop_
_atom_site_label
_atom_site_type_symbol
_atom_site_symmetry_multiplicity
_atom_site_Wyckoff_symbol
_atom_site_fract_x
_atom_site_fract_y
_atom_site_fract_z
_atom_site_B_iso_or_equiv
_atom_site_occupancy
_atom_site_attached_hydrogens
Sr1 Sr0+ 4 a . . . .022(3) 1. 0
As1 As0+ 8 i . . .3616(4) .034(3) 1. 0
Rh1 Rh0+ 8 f .25 .25 .25 .0350(15) 1. 0
loop_
_atom_site_aniso_label
_atom_site_aniso_type_symbol
_atom_site_aniso_U_11
_atom_site_aniso_U_22
_atom_site_aniso_U_33
_atom_site_aniso_U_12
_atom_site_aniso_U_13
_atom_site_aniso_U_23
Sr1 Sr0+ .0107(16) .022(3) .032(3) . . .
As1 As0+ .0171(16) .038(3) .046(3) . . .
Rh1 Rh0+ .0081(9) .0645(19) .0323(16) . . .
#End of TTdata_417001-ICSD