
data_41711-ICSD
_database_code_ICSD 41711
_audit_creation_date 2000-07-15
_chemical_name_systematic 'Disilver germanium sulfide'
_chemical_formula_structural 'Ag2 Ge S3'
_chemical_formula_sum 'Ag2 Ge1 S3'
_chemical_name_structure_type Na2SiO3
_exptl_crystal_density_diffrn 4.82
_cell_length_a 11.791(5)
_cell_length_b 7.079(3)
_cell_length_c 6.344(3)
_cell_angle_alpha 90.
_cell_angle_beta 90.
_cell_angle_gamma 90.
_cell_volume 529.52
_cell_formula_units_Z 4
_symmetry_space_group_name_H-M 'C m c 21'
_symmetry_Int_Tables_number 36
loop_
_symmetry_equiv_pos_site_id
_symmetry_equiv_pos_as_xyz
1 'x, -y, z+1/2'
2 '-x, -y, z+1/2'
3 '-x, y, z'
4 'x, y, z'
5 'x+1/2, -y+1/2, z+1/2'
6 '-x+1/2, -y+1/2, z+1/2'
7 '-x+1/2, y+1/2, z'
8 'x+1/2, y+1/2, z'
loop_
_atom_type_symbol
_atom_type_oxidation_number
Ag1+ 1
Ge4+ 4
S2- -2
loop_
_atom_site_label
_atom_site_type_symbol
_atom_site_symmetry_multiplicity
_atom_site_Wyckoff_symbol
_atom_site_fract_x
_atom_site_fract_y
_atom_site_fract_z
_atom_site_B_iso_or_equiv
_atom_site_occupancy
_atom_site_attached_hydrogens
Ag1 Ag1+ 8 b 0.152 0.846 -.027 0.041 1. 0
Ge1 Ge4+ 4 a 0 0.405 -.048 0.006 1. 0
S1 S2- 8 b 0.142 0.806 0.404 0.055 1. 0
S2 S2- 4 a 0 0.319 0.311 0.036 1. 0
