
data_417470-ICSD
_database_code_ICSD 417470
_audit_creation_date 2008-08-01
_chemical_name_systematic 'Trisilver(I) vanadate(V) - beta'
_chemical_formula_structural 'Ag3 (V O4)'
_chemical_formula_sum 'Ag3 O4 V1'
_chemical_name_structure_type Stannite-Cu2FeSnS4
_exptl_crystal_density_diffrn 6.02
_cell_measurement_temperature 423.
_cell_length_a 4.9968(1)
_cell_length_b 4.9968(1)
_cell_length_c 9.69111(27)
_cell_angle_alpha 90.
_cell_angle_beta 90.
_cell_angle_gamma 90.
_cell_volume 241.97
_cell_formula_units_Z 2
_symmetry_space_group_name_H-M 'I -4 2 m'
_symmetry_Int_Tables_number 121
_refine_ls_R_factor_all 0.01
loop_
_symmetry_equiv_pos_site_id
_symmetry_equiv_pos_as_xyz
1 '-y, -x, z'
2 'y, x, z'
3 'y, -x, -z'
4 '-y, x, -z'
5 'x, -y, -z'
6 '-x, y, -z'
7 '-x, -y, z'
8 'x, y, z'
9 '-y+1/2, -x+1/2, z+1/2'
10 'y+1/2, x+1/2, z+1/2'
11 'y+1/2, -x+1/2, -z+1/2'
12 '-y+1/2, x+1/2, -z+1/2'
13 'x+1/2, -y+1/2, -z+1/2'
14 '-x+1/2, y+1/2, -z+1/2'
15 '-x+1/2, -y+1/2, z+1/2'
16 'x+1/2, y+1/2, z+1/2'
loop_
_atom_type_symbol
_atom_type_oxidation_number
Ag1+ 1
V5+ 5
O2- -2
loop_
_atom_site_label
_atom_site_type_symbol
_atom_site_symmetry_multiplicity
_atom_site_Wyckoff_symbol
_atom_site_fract_x
_atom_site_fract_y
_atom_site_fract_z
_atom_site_B_iso_or_equiv
_atom_site_occupancy
_atom_site_attached_hydrogens
Ag1 Ag1+ 4 d 0. 0.5 0.75 0.1925(16) 1. 0
Ag2 Ag1+ 2 b 0. 0. 0.5 0.1927(20) 1. 0
V1 V5+ 2 a 0. 0. 0. 0.0316(20) 1. 0
O1 O2- 8 i 0.8073(5) 0.1927(5) -0.0997(5) 0.0057(16) 1. 0
