
#(C) 2017 by FIZ Karlsruhe - Leibniz Institute for Information Infrastructure.  All rights reserved.
data_417442-ICSD
_database_code_ICSD 417442
_audit_creation_date 2008-02-01
_chemical_name_systematic 'Lithium rhodium boride (2/3/2)'
_chemical_formula_structural 'Li2 Rh3 B2'
_chemical_formula_sum 'B2 Li2 Rh3'
_exptl_crystal_density_diffrn 7.35
_cell_measurement_temperature 173.
_publ_section_title 'Synthesis, structure and properties of Li2 Rh3 B2'
loop_
_citation_id
_citation_journal_full
_citation_year
_citation_journal_volume
_citation_page_first
_citation_page_last
_citation_journal_id_ASTM
primary 'Journal of Solid State Chemistry' 2007 180 1333 1339 JSSCBI
loop_
_publ_author_name
'Bailey, M.S.'
'Lobkovskii, E.B.'
'Hinks, D.G.'
'Claus, H.'
'Hor Yew San'
'Schlueter, J.A.'
'Mitchell, J.F.'
_cell_length_a 5.773(1)
_cell_length_b 9.401(2)
_cell_length_c 2.821(6)
_cell_angle_alpha 90.
_cell_angle_beta 90.
_cell_angle_gamma 90.
_cell_volume 153.1
_cell_formula_units_Z 2
_symmetry_space_group_name_H-M 'P b a m'
_symmetry_Int_Tables_number 55
_refine_ls_R_factor_all 0.028
loop_
_symmetry_equiv_pos_site_id
_symmetry_equiv_pos_as_xyz
1 'x+1/2, -y+1/2, z'
2 '-x+1/2, y+1/2, z'
3 'x, y, -z'
4 '-x, -y, -z'
5 '-x+1/2, y+1/2, -z'
6 'x+1/2, -y+1/2, -z'
7 '-x, -y, z'
8 'x, y, z'
loop_
_atom_type_symbol
_atom_type_oxidation_number
B0+ 0
Li0+ 0
Rh0+ 0
loop_
_atom_site_label
_atom_site_type_symbol
_atom_site_symmetry_multiplicity
_atom_site_Wyckoff_symbol
_atom_site_fract_x
_atom_site_fract_y
_atom_site_fract_z
_atom_site_B_iso_or_equiv
_atom_site_occupancy
_atom_site_attached_hydrogens
B1 B0+ 4 h 0.062(1) 0.1680(6) 0.5 0.005(1) 1. 0
Li1 Li0+ 4 h 0.157(2) 0.426(1) 0.5 0.010(2) 1. 0
Rh1 Rh0+ 4 g 0.3344(1) 0.2211(1) 0 0.003(1) 1. 0
Rh2 Rh0+ 2 a 0 0 0 0.003(1) 1. 0
#End of TTdata_417442-ICSD