
#(C) 2017 by FIZ Karlsruhe - Leibniz Institute for Information Infrastructure.  All rights reserved.
data_417571-ICSD
_database_code_ICSD 417571
_audit_creation_date 2008-02-01
_chemical_name_systematic 'Diammonium octachlorotrimercurate(II) hydrate'
_chemical_formula_structural '(N H4)2 (Hg3 Cl8) (H2 O)'
_chemical_formula_sum 'H10 Cl8 Hg3 N2 O1'
_exptl_crystal_density_diffrn 3.88
_cell_measurement_temperature 293.
_publ_section_title

;
The persistence of the Hg Cl2 molecule in five new compounds in the system (N
H4)(w) Hg(x) Cl(y) (H2 O)(z) with w:x:y:z = 1:5:11:0, 2:3:8:1, 4:3:10:2,
2:1:4:1, and 10:3:16:0
;
loop_
_citation_id
_citation_journal_full
_citation_year
_citation_journal_volume
_citation_page_first
_citation_page_last
_citation_journal_id_ASTM
primary 'Zeitschrift fuer Anorganische und Allgemeine Chemie (1950) (DE)' 2007
633 814 819 ZAACAB
loop_
_publ_author_name
'Nockemann, P.'
'Pantenburg, I.'
'Meyer, G.'
_cell_length_a 21.965(6)
_cell_length_b 4.2329(6)
_cell_length_c 9.044(2)
_cell_angle_alpha 90.
_cell_angle_beta 107.13(2)
_cell_angle_gamma 90.
_cell_volume 803.57
_cell_formula_units_Z 2
_symmetry_space_group_name_H-M 'C 1 2/m 1'
_symmetry_Int_Tables_number 12
_refine_ls_R_factor_all 0.0394
loop_
_symmetry_equiv_pos_site_id
_symmetry_equiv_pos_as_xyz
1 '-x, y, -z'
2 '-x, -y, -z'
3 'x, -y, z'
4 'x, y, z'
5 '-x+1/2, y+1/2, -z'
6 '-x+1/2, -y+1/2, -z'
7 'x+1/2, -y+1/2, z'
8 'x+1/2, y+1/2, z'
loop_
_atom_type_symbol
_atom_type_oxidation_number
Hg2+ 2
Cl1- -1
Hg2+ 2
Cl1- -1
O2- -2
N3- -3
H1+ 1
loop_
_atom_site_label
_atom_site_type_symbol
_atom_site_symmetry_multiplicity
_atom_site_Wyckoff_symbol
_atom_site_fract_x
_atom_site_fract_y
_atom_site_fract_z
_atom_site_B_iso_or_equiv
_atom_site_occupancy
_atom_site_attached_hydrogens
Hg1 Hg2+ 2 a 1. 0. 1. 0.0403(2) 1 0
Cl1 Cl1- 4 i 0.94477(17) 0. 0.7381(4) 0.0512(7) 1 0
Hg2 Hg2+ 4 i 0.834715(19) 0. 1.09968(5) 0.0399(2) 1 0
Cl2 Cl1- 4 i 0.76600(15) 0. 0.8440(4) 0.0433(6) 1 0
Cl3 Cl1- 4 i 0.87414(16) 0. 1.3718(4) 0.0467(6) 1 0
Cl4 Cl1- 4 i 0.91132(13) -0.5 1.0607(4) 0.0519(9) 1 0
O1 O2- 2 d 1. -0.5 0.5 0.082(5) 1 0
N1 N3- 4 i 0.7963(10) 0.5 0.573(2) 0.097(6) 1 0
loop_
_atom_site_aniso_label
_atom_site_aniso_type_symbol
_atom_site_aniso_U_11
_atom_site_aniso_U_22
_atom_site_aniso_U_33
_atom_site_aniso_U_12
_atom_site_aniso_U_13
_atom_site_aniso_U_23
Hg1 Hg2+ 0.0411(3) 0.0482(4) 0.0297(3) 0. 0.0072(3) 0.
Cl1 Cl1- 0.0581(18) 0.0561(16) 0.0336(15) 0. 0.0045(13) 0.
Hg2 Hg2+ 0.0398(3) 0.0429(3) 0.0328(3) 0. 0.00424(19) 0.
Cl2 Cl1- 0.0436(14) 0.0487(14) 0.0336(13) 0. 0.0053(11) 0.
Cl3 Cl1- 0.0489(15) 0.0515(14) 0.0341(14) 0. 0.0035(12) 0.
Cl4 Cl1- 0.0453(16) 0.0323(13) 0.088(3) 0. 0.0354(19) 0.
O1 O2- 0.067(10) 0.060(8) 0.120(15) 0. 0.030(10) 0.
N1 N3- 0.148(16) 0.082(9) 0.089(12) 0. 0.078(12) 0.
#End of TTdata_417571-ICSD