
#(C) 2017 by FIZ Karlsruhe - Leibniz Institute for Information Infrastructure.  All rights reserved.
data_417632-ICSD
_database_code_ICSD 417632
_audit_creation_date 2008-08-01
_chemical_name_systematic 'Lead nickel sulfide (2/3/2)'
_chemical_formula_structural 'Pb2 Ni3 S2'
_chemical_formula_sum 'Ni3 Pb2 S2'
_chemical_name_structure_type Ni3Pb2S2
_chemical_name_mineral Shandite
_exptl_crystal_density_diffrn 8.83
_cell_measurement_temperature 293.
_publ_section_title

;
Structure, ordering and bonding of half antiperovskites: Pb Ni3/2 S and Bi
Pd3/2 S
;
loop_
_citation_id
_citation_journal_full
_citation_year
_citation_journal_volume
_citation_page_first
_citation_page_last
_citation_journal_id_ASTM
primary 'Progress in Solid State Chemistry' 2007 35 309 327 PSSTAW
loop_
_publ_author_name
'Weihrich, R.'
'Matar, S.F.'
'Eyert, V.'
'Rau, F.'
'Zabel, M.'
'Andratschke, M.'
'Anusca, I.'
'Bernert, T.'
_cell_length_a 5.5950(6)
_cell_length_b 5.5950(6)
_cell_length_c 13.626(2)
_cell_angle_alpha 90.
_cell_angle_beta 90.
_cell_angle_gamma 120.
_cell_volume 369.4
_cell_formula_units_Z 3
_symmetry_space_group_name_H-M 'R -3 m H'
_symmetry_Int_Tables_number 166
_refine_ls_R_factor_all 0.04
loop_
_symmetry_equiv_pos_site_id
_symmetry_equiv_pos_as_xyz
1 'x-y, -y, -z'
2 '-x, -x+y, -z'
3 'y, x, -z'
4 'x-y, x, -z'
5 'y, -x+y, -z'
6 '-x, -y, -z'
7 '-x+y, y, z'
8 'x, x-y, z'
9 '-y, -x, z'
10 '-x+y, -x, z'
11 '-y, x-y, z'
12 'x, y, z'
13 'x-y+2/3, -y+1/3, -z+1/3'
14 '-x+2/3, -x+y+1/3, -z+1/3'
15 'y+2/3, x+1/3, -z+1/3'
16 'x-y+2/3, x+1/3, -z+1/3'
17 'y+2/3, -x+y+1/3, -z+1/3'
18 '-x+2/3, -y+1/3, -z+1/3'
19 '-x+y+2/3, y+1/3, z+1/3'
20 'x+2/3, x-y+1/3, z+1/3'
21 '-y+2/3, -x+1/3, z+1/3'
22 '-x+y+2/3, -x+1/3, z+1/3'
23 '-y+2/3, x-y+1/3, z+1/3'
24 'x+2/3, y+1/3, z+1/3'
25 'x-y+1/3, -y+2/3, -z+2/3'
26 '-x+1/3, -x+y+2/3, -z+2/3'
27 'y+1/3, x+2/3, -z+2/3'
28 'x-y+1/3, x+2/3, -z+2/3'
29 'y+1/3, -x+y+2/3, -z+2/3'
30 '-x+1/3, -y+2/3, -z+2/3'
31 '-x+y+1/3, y+2/3, z+2/3'
32 'x+1/3, x-y+2/3, z+2/3'
33 '-y+1/3, -x+2/3, z+2/3'
34 '-x+y+1/3, -x+2/3, z+2/3'
35 '-y+1/3, x-y+2/3, z+2/3'
36 'x+1/3, y+2/3, z+2/3'
loop_
_atom_type_symbol
_atom_type_oxidation_number
Pb2+ 2
Ni0+ 0
S2- -2
loop_
_atom_site_label
_atom_site_type_symbol
_atom_site_symmetry_multiplicity
_atom_site_Wyckoff_symbol
_atom_site_fract_x
_atom_site_fract_y
_atom_site_fract_z
_atom_site_B_iso_or_equiv
_atom_site_occupancy
_atom_site_attached_hydrogens
Pb1 Pb2+ 3 a 0. 0. 0. 0.0202(5) 1 0
Pb2 Pb2+ 3 b 0. 0. 0.5 0.0185(5) 1 0
Ni1 Ni0+ 9 d 0.5 0. 0.5 0.0246(9) 1 0
S1 S2- 6 c 0. 0. 0.2753(11) 0.020(2) 1 0
loop_
_atom_site_aniso_label
_atom_site_aniso_type_symbol
_atom_site_aniso_U_11
_atom_site_aniso_U_22
_atom_site_aniso_U_33
_atom_site_aniso_U_12
_atom_site_aniso_U_13
_atom_site_aniso_U_23
Pb1 Pb2+ 0.0192(5) 0.0192(5) 0.0224(12) 0.0096(3) 0. 0.
Pb2 Pb2+ 0.0137(5) 0.0137(5) 0.0281(12) 0.0069(3) 0. 0.
Ni1 Ni0+ 0.0202(12) 0.0169(13) 0.036(2) 0.0085(7) -0.0012(9) -0.0024(17)
S1 S2- 0.020(3) 0.020(3) 0.022(5) 0.0098(16) 0. 0.
#End of TTdata_417632-ICSD