
#(C) 2017 by FIZ Karlsruhe - Leibniz Institute for Information Infrastructure.  All rights reserved.
data_417912-ICSD
_database_code_ICSD 417912
_audit_creation_date 2008-08-01
_chemical_name_systematic 'Lanthanum platinum phosphide (1/1/1)'
_chemical_formula_structural 'La Pt P'
_chemical_formula_sum 'La1 P1 Pt1'
_chemical_name_structure_type TiNiSi-MgSrSi
_exptl_crystal_density_diffrn 9.36
_cell_measurement_temperature 293.
_publ_section_title
'Sc Pt P and La Pt P - two phosphides with "inverse" Ti Ni Si-type  structure'
loop_
_citation_id
_citation_journal_full
_citation_year
_citation_journal_volume
_citation_page_first
_citation_page_last
_citation_journal_id_ASTM
primary 'Zeitschrift fuer Naturforschung, B: Chemical Sciences' 2007 62 1153
1156 ZNBSEN
loop_
_publ_author_name
'Imre, A.'
'Mewis, A.'
_cell_length_a 7.268(1)
_cell_length_b 4.532(1)
_cell_length_c 7.864(2)
_cell_angle_alpha 90
_cell_angle_beta 90
_cell_angle_gamma 90
_cell_volume 259.03
_cell_formula_units_Z 4
_symmetry_space_group_name_H-M 'P n m a'
_symmetry_Int_Tables_number 62
_refine_ls_R_factor_all 0.0378
loop_
_symmetry_equiv_pos_site_id
_symmetry_equiv_pos_as_xyz
1 'x+1/2, y, -z+1/2'
2 'x, -y+1/2, z'
3 '-x+1/2, y+1/2, z+1/2'
4 '-x, -y, -z'
5 '-x+1/2, -y, z+1/2'
6 '-x, y+1/2, -z'
7 'x+1/2, -y+1/2, -z+1/2'
8 'x, y, z'
loop_
_atom_type_symbol
_atom_type_oxidation_number
La0+ 0
Pt0+ 0
P0+ 0
loop_
_atom_site_label
_atom_site_type_symbol
_atom_site_symmetry_multiplicity
_atom_site_Wyckoff_symbol
_atom_site_fract_x
_atom_site_fract_y
_atom_site_fract_z
_atom_site_B_iso_or_equiv
_atom_site_occupancy
_atom_site_attached_hydrogens
La1 La0+ 4 c 0.03012(10) 0.25 0.68096(11) 0.0074(2) 1 0
Pt1 Pt0+ 4 c 0.28725(7) 0.25 0.38899(7) 0.0072(2) 1 0
P1 P0+ 4 c 0.1458(6) 0.25 0.0685(6) 0.0155(8) 1 0
loop_
_atom_site_aniso_label
_atom_site_aniso_type_symbol
_atom_site_aniso_U_11
_atom_site_aniso_U_22
_atom_site_aniso_U_33
_atom_site_aniso_U_12
_atom_site_aniso_U_13
_atom_site_aniso_U_23
La1 La0+ 0.0035(3) 0.0120(4) 0.0066(3) 0. -0.0011(3) 0.
Pt1 Pt0+ 0.0041(3) 0.0104(3) 0.0071(3) 0. 0.00099(18) 0.
P1 P0+ 0.0041(3) 0.0104(3) 0.0071(3) 0. 0.00099(18) 0.
#End of TTdata_417912-ICSD