
#(C) 2017 by FIZ Karlsruhe - Leibniz Institute for Information Infrastructure.  All rights reserved.
data_417911-ICSD
_database_code_ICSD 417911
_audit_creation_date 2008-08-01
_chemical_name_systematic 'Scandium platinum phosphide (1/1/1)'
_chemical_formula_structural 'Sc Pt P'
_chemical_formula_sum 'P1 Pt1 Sc1'
_chemical_name_structure_type TiNiSi-MgSrSi
_exptl_crystal_density_diffrn 8.63
_cell_measurement_temperature 293.
_publ_section_title
'Sc Pt P and La Pt P - two phosphides with "inverse" Ti Ni Si-type  structure'
loop_
_citation_id
_citation_journal_full
_citation_year
_citation_journal_volume
_citation_page_first
_citation_page_last
_citation_journal_id_ASTM
primary 'Zeitschrift fuer Naturforschung, B: Chemical Sciences' 2007 62 1153
1156 ZNBSEN
loop_
_publ_author_name
'Imre, A.'
'Mewis, A.'
_cell_length_a 6.437(1)
_cell_length_b 4.291(1)
_cell_length_c 7.550(2)
_cell_angle_alpha 90
_cell_angle_beta 90
_cell_angle_gamma 90
_cell_volume 208.54
_cell_formula_units_Z 4
_symmetry_space_group_name_H-M 'P n m a'
_symmetry_Int_Tables_number 62
_refine_ls_R_factor_all 0.0438
loop_
_symmetry_equiv_pos_site_id
_symmetry_equiv_pos_as_xyz
1 'x+1/2, y, -z+1/2'
2 'x, -y+1/2, z'
3 '-x+1/2, y+1/2, z+1/2'
4 '-x, -y, -z'
5 '-x+1/2, -y, z+1/2'
6 '-x, y+1/2, -z'
7 'x+1/2, -y+1/2, -z+1/2'
8 'x, y, z'
loop_
_atom_type_symbol
_atom_type_oxidation_number
Sc0+ 0
Pt0+ 0
P0+ 0
loop_
_atom_site_label
_atom_site_type_symbol
_atom_site_symmetry_multiplicity
_atom_site_Wyckoff_symbol
_atom_site_fract_x
_atom_site_fract_y
_atom_site_fract_z
_atom_site_B_iso_or_equiv
_atom_site_occupancy
_atom_site_attached_hydrogens
Sc1 Sc0+ 4 c 0.0234(3) 0.25 0.6867(3) 0.0080(4) 1 0
Pt1 Pt0+ 4 c 0.26348(6) 0.25 0.38719(6) 0.00760(17) 1 0
P1 P0+ 4 c 0.1566(6) 0.25 0.0652(5) 0.0152(7) 1 0
loop_
_atom_site_aniso_label
_atom_site_aniso_type_symbol
_atom_site_aniso_U_11
_atom_site_aniso_U_22
_atom_site_aniso_U_33
_atom_site_aniso_U_12
_atom_site_aniso_U_13
_atom_site_aniso_U_23
Sc1 Sc0+ 0.0056(7) 0.0117(9) 0.0067(8) 0. -0.0008(6) 0.
Pt1 Pt0+ 0.0069(2) 0.0096(2) 0.0063(2) 0. 0.00007(13) 0.
P1 P0+ 0.0069(2) 0.0096(2) 0.0063(2) 0. 0.00007(13) 0.
#End of TTdata_417911-ICSD