
#(C) 2017 by FIZ Karlsruhe - Leibniz Institute for Information Infrastructure.  All rights reserved.
data_41800-ICSD
_database_code_ICSD 41800
_audit_creation_date 2000-07-15
_chemical_name_systematic 'Scandium nickel silicide (1/1/1)'
_chemical_formula_structural 'Sc Ni Si'
_chemical_formula_sum 'Ni1 Sc1 Si1'
_chemical_name_structure_type TiNiSi-MgSrSi
_exptl_crystal_density_diffrn 4.98
_publ_section_title

;
New representatives of the structural types Ti Ni Si and Zr Si2 in the systems
Sc-Mn (Fe, Co, Ni)-Si
;
loop_
_citation_id
_citation_journal_full
_citation_year
_citation_journal_volume
_citation_page_first
_citation_page_last
_citation_journal_id_ASTM
primary Kristallografiya 1977 22 1209 1214 KRISAJ
loop_
_publ_author_name
'Kotur, B.Ya.'
'Bodak, O.I.'
_cell_length_a 6.383(5)
_cell_length_b 4.011(3)
_cell_length_c 6.868(5)
_cell_angle_alpha 90.
_cell_angle_beta 90.
_cell_angle_gamma 90.
_cell_volume 175.84
_cell_formula_units_Z 4
_symmetry_space_group_name_H-M 'P n m a'
_symmetry_Int_Tables_number 62
_refine_ls_R_factor_all 0.113
loop_
_symmetry_equiv_pos_site_id
_symmetry_equiv_pos_as_xyz
1 'x+1/2, y, -z+1/2'
2 'x, -y+1/2, z'
3 '-x+1/2, y+1/2, z+1/2'
4 '-x, -y, -z'
5 '-x+1/2, -y, z+1/2'
6 '-x, y+1/2, -z'
7 'x+1/2, -y+1/2, -z+1/2'
8 'x, y, z'
loop_
_atom_type_symbol
_atom_type_oxidation_number
Sc0+ 0
Ni0+ 0
Si0+ 0
loop_
_atom_site_label
_atom_site_type_symbol
_atom_site_symmetry_multiplicity
_atom_site_Wyckoff_symbol
_atom_site_fract_x
_atom_site_fract_y
_atom_site_fract_z
_atom_site_B_iso_or_equiv
_atom_site_occupancy
_atom_site_attached_hydrogens
Sc1 Sc0+ 4 c 0.498 0.25 0.3 0.37 1. 0
Ni1 Ni0+ 4 c 0.177 0.25 0.576 0.37 1. 0
Si1 Si0+ 4 c 0.793 0.25 0.594 0.37 1. 0
#End of TTdata_41800-ICSD