
#(C) 2017 by FIZ Karlsruhe - Leibniz Institute for Information Infrastructure.  All rights reserved.
data_418002-ICSD
_database_code_ICSD 418002
_audit_creation_date 2009-02-01
_chemical_name_systematic
'Sodium dicobalt(II) hydrate hydroxide bis(molybdate(VI))'
_chemical_formula_structural 'Na Co2 (H2 O) (O H) (Mo O4)2'
_chemical_formula_sum 'H3 Co2 Mo2 Na1 O10'
_chemical_name_structure_type NaCu2OH(SO4)2H2O
_exptl_crystal_density_diffrn 4.05
_cell_measurement_temperature 173.
_publ_section_title

;
Magnetic properties and magnetic structures of synthetic natrochalcites, Na
M2(II) (D3 O2) (Mo O4)2, M = Co or Ni
;
loop_
_citation_id
_citation_journal_full
_citation_year
_citation_journal_volume
_citation_page_first
_citation_page_last
_citation_journal_id_ASTM
primary 'Journal of the American Chemical Society' 2008 130 13490 13499 JACSAT
loop_
_publ_author_name
'Vilminot, S.'
'Andre, G.'
'Bouree-Vigneron, F.'
'Baker, P.J.'
'Blundell, S.J.'
'Kurmoo, M.'
_cell_length_a 9.3557(9)
_cell_length_b 6.3269(6)
_cell_length_c 7.6248(7)
_cell_angle_alpha 90
_cell_angle_beta 115.784(2)
_cell_angle_gamma 90
_cell_volume 406.4
_cell_formula_units_Z 2
_symmetry_space_group_name_H-M 'C 1 2/m 1'
_symmetry_Int_Tables_number 12
_refine_ls_R_factor_all 0.0365
loop_
_symmetry_equiv_pos_site_id
_symmetry_equiv_pos_as_xyz
1 '-x, y, -z'
2 '-x, -y, -z'
3 'x, -y, z'
4 'x, y, z'
5 '-x+1/2, y+1/2, -z'
6 '-x+1/2, -y+1/2, -z'
7 'x+1/2, -y+1/2, z'
8 'x+1/2, y+1/2, z'
loop_
_atom_type_symbol
_atom_type_oxidation_number
Mo6+ 6
Co2+ 2
Na1+ 1
O2- -2
H1+ 1
loop_
_atom_site_label
_atom_site_type_symbol
_atom_site_symmetry_multiplicity
_atom_site_Wyckoff_symbol
_atom_site_fract_x
_atom_site_fract_y
_atom_site_fract_z
_atom_site_B_iso_or_equiv
_atom_site_occupancy
_atom_site_attached_hydrogens
Mo1 Mo6+ 4 i 0.08047(7) 0 0.28676(11) 0.0048(3) 1. 0
Co1 Co2+ 4 e 0.25 0.25 0 0.0056(3) 1. 0
Na1 Na1+ 2 d 0 0.5 0.5 0.0103(11) 1. 0
O1 O2- 4 i 0.3516(6) 0 0.9143(10) 0.0064(13) 1. 0
O2 O2- 4 i 0.7656(7) 0 0.4825(10) 0.0129(15) 1. 0
O3 O2- 8 j 0.4618(5) 0.7273(6) 0.2586(8) 0.0081(10) 1. 0
O4 O2- 4 i 0.8312(6) 0 0.8829(9) 0.0081(14) 1. 0
#End of TTdata_418002-ICSD