
#(C) 2017 by FIZ Karlsruhe - Leibniz Institute for Information Infrastructure.  All rights reserved.
data_41818-ICSD
_database_code_ICSD 41818
_audit_creation_date 2000-07-15
_chemical_name_systematic 'Nickel tungsten phosphide (1/2/3)'
_chemical_formula_structural 'Ni W2 P3'
_chemical_formula_sum 'Ni1 P3 W2'
_exptl_crystal_density_diffrn 10.31
_publ_section_title

;
Nouveau type structural derivant de Ni As: les composes ternaires de molybdene
ou de tungstene Ni Mo2 As3 et Ni W2 P3
;
loop_
_citation_id
_citation_journal_full
_citation_year
_citation_journal_volume
_citation_page_first
_citation_page_last
_citation_journal_id_ASTM
primary 'Revue de Chimie Minerale' 1975 12 335 346 RVCMA8
loop_
_publ_author_name
'Guerin, R.'
'Potel, M.'
'Sergent, M.'
_cell_length_a 12.598(4)
_cell_length_b 3.240(1)
_cell_length_c 8.526(3)
_cell_angle_alpha 90.
_cell_angle_beta 106.01(2)
_cell_angle_gamma 90.
_cell_volume 334.51
_cell_formula_units_Z 4
_symmetry_space_group_name_H-M 'C 1 2/m 1'
_symmetry_Int_Tables_number 12
loop_
_symmetry_equiv_pos_site_id
_symmetry_equiv_pos_as_xyz
1 '-x, y, -z'
2 '-x, -y, -z'
3 'x, -y, z'
4 'x, y, z'
5 '-x+1/2, y+1/2, -z'
6 '-x+1/2, -y+1/2, -z'
7 'x+1/2, -y+1/2, z'
8 'x+1/2, y+1/2, z'
loop_
_atom_type_symbol
_atom_type_oxidation_number
Ni0+ 0
W0+ 0
P0+ 0
loop_
_atom_site_label
_atom_site_type_symbol
_atom_site_symmetry_multiplicity
_atom_site_Wyckoff_symbol
_atom_site_fract_x
_atom_site_fract_y
_atom_site_fract_z
_atom_site_B_iso_or_equiv
_atom_site_occupancy
_atom_site_attached_hydrogens
Ni1 Ni0+ 2 b 0.5 0 0 . 1. 0
Ni2 Ni0+ 2 c 0 0 0.5 . 1. 0
W1 W0+ 4 i 0.17550(6) 0 0.37806(9) . 1. 0
W2 W0+ 4 i 0.32461(6) 0 0.13127(9) . 1. 0
P1 P0+ 4 i 0.98234(8) 0 0.19531(9) . 1. 0
P2 P0+ 4 i 0.68218(8) 0 0.15661(9) . 1. 0
P3 P0+ 4 i 0.37591(8) 0 0.43632(9) . 1. 0
#End of TTdata_41818-ICSD