
#(C) 2017 by FIZ Karlsruhe - Leibniz Institute for Information Infrastructure.  All rights reserved.
data_418179-ICSD
_database_code_ICSD 418179
_audit_creation_date 2008-08-01
_chemical_name_systematic 'Strontium palladium indide (1/1/4)'
_chemical_formula_structural 'Sr Pd In4'
_chemical_formula_sum 'In4 Pd1 Sr1'
_chemical_name_structure_type Al4NiY
_exptl_crystal_density_diffrn 7.44
_cell_measurement_temperature 293.
_publ_section_title 'New indium - rich indides Sr T In4 (T = Ni, Pd, Pt)'
loop_
_citation_id
_citation_journal_full
_citation_year
_citation_journal_volume
_citation_page_first
_citation_page_last
_citation_journal_id_ASTM
primary 'Zeitschrift fuer Naturforschung, B: Chemical Sciences' 2007 62 1407
1410 ZNBSEN
loop_
_publ_author_name
'Muts, I.'
'Zaremba, V.I.'
'Baran, V.V.'
'Poettgen, R.'
_cell_length_a 4.5474(16)
_cell_length_b 17.088(4)
_cell_length_c 7.501(2)
_cell_angle_alpha 90.
_cell_angle_beta 90.
_cell_angle_gamma 90.
_cell_volume 582.87
_cell_formula_units_Z 4
_symmetry_space_group_name_H-M 'C m c m'
_symmetry_Int_Tables_number 63
_refine_ls_R_factor_all 0.0293
loop_
_symmetry_equiv_pos_site_id
_symmetry_equiv_pos_as_xyz
1 '-x, y, -z+1/2'
2 '-x, -y, z+1/2'
3 '-x, y, z'
4 '-x, -y, -z'
5 'x, -y, z+1/2'
6 'x, y, -z+1/2'
7 'x, -y, -z'
8 'x, y, z'
9 '-x+1/2, y+1/2, -z+1/2'
10 '-x+1/2, -y+1/2, z+1/2'
11 '-x+1/2, y+1/2, z'
12 '-x+1/2, -y+1/2, -z'
13 'x+1/2, -y+1/2, z+1/2'
14 'x+1/2, y+1/2, -z+1/2'
15 'x+1/2, -y+1/2, -z'
16 'x+1/2, y+1/2, z'
loop_
_atom_type_symbol
_atom_type_oxidation_number
Sr0+ 0
Pd0+ 0
In0+ 0
loop_
_atom_site_label
_atom_site_type_symbol
_atom_site_symmetry_multiplicity
_atom_site_Wyckoff_symbol
_atom_site_fract_x
_atom_site_fract_y
_atom_site_fract_z
_atom_site_B_iso_or_equiv
_atom_site_occupancy
_atom_site_attached_hydrogens
Sr1 Sr0+ 4 c 0. 0.12390(5) 0.25 0.01318(18) 1 0
Pd1 Pd0+ 4 c 0. 0.77416(4) 0.25 0.01209(15) 1 0
In1 In0+ 8 f 0. 0.31516(3) 0.05160(6) 0.01233(12) 1 0
In2 In0+ 4 c 0. 0.93010(4) 0.25 0.01755(16) 1 0
In3 In0+ 4 b 0. 0.5 0. 0.01909(16) 1 0
loop_
_atom_site_aniso_label
_atom_site_aniso_type_symbol
_atom_site_aniso_U_11
_atom_site_aniso_U_22
_atom_site_aniso_U_33
_atom_site_aniso_U_12
_atom_site_aniso_U_13
_atom_site_aniso_U_23
Sr1 Sr0+ 0.0143(4) 0.0113(4) 0.0139(4) 0. 0. 0.
Pd1 Pd0+ 0.0133(3) 0.0121(3) 0.0109(3) 0. 0. 0.
In1 In0+ 0.0138(2) 0.0144(2) 0.00885(19) 0. 0. -0.00036(15)
In2 In0+ 0.0214(3) 0.0110(3) 0.0203(3) 0. 0. 0.
In3 In0+ 0.0198(3) 0.0142(3) 0.0232(4) 0. 0. -0.0005(3)
#End of TTdata_418179-ICSD