
#(C) 2017 by FIZ Karlsruhe - Leibniz Institute for Information Infrastructure.  All rights reserved.
data_418385-ICSD
_database_code_ICSD 418385
_audit_creation_date 2008-08-01
_audit_update_record 2010-08-01
_chemical_name_systematic 'Nickel diborate'
_chemical_formula_structural 'Ni (B2 O4)'
_chemical_formula_sum 'B2 Ni1 O4'
_chemical_name_structure_type Ni2BO4
_exptl_crystal_density_diffrn 4.46
_cell_measurement_temperature 293.
_publ_section_title

;
Formation of edge-sharing B O4 tetrahedra in the high-pressure borate HP-Ni B2
O4
;
loop_
_citation_id
_citation_journal_full
_citation_year
_citation_journal_volume
_citation_page_first
_citation_page_last
_citation_journal_id_ASTM
primary 'Angewandte Chemie. International Edition' 2007 46 9097 9100 ACIEF5
loop_
_publ_author_name
'Knyrim, J.S.'
'Roessner, F.'
'Jakob, S.'
'Johrendt, D.'
'Kinski, I.'
'Glaum, R.'
'Huppertz, H.'
_cell_length_a 9.2465(18)
_cell_length_b 5.5232(11)
_cell_length_c 4.4288(9)
_cell_angle_alpha 90.
_cell_angle_beta 108.30(3)
_cell_angle_gamma 90.
_cell_volume 214.74
_cell_formula_units_Z 4
_symmetry_space_group_name_H-M 'C 1 2/c 1'
_symmetry_Int_Tables_number 15
_refine_ls_R_factor_all 0.026
loop_
_symmetry_equiv_pos_site_id
_symmetry_equiv_pos_as_xyz
1 'x, -y, z+1/2'
2 '-x, -y, -z'
3 '-x, y, -z+1/2'
4 'x, y, z'
5 'x+1/2, -y+1/2, z+1/2'
6 '-x+1/2, -y+1/2, -z'
7 '-x+1/2, y+1/2, -z+1/2'
8 'x+1/2, y+1/2, z'
loop_
_atom_type_symbol
_atom_type_oxidation_number
Ni2+ 2
O2- -2
B3+ 3
loop_
_atom_site_label
_atom_site_type_symbol
_atom_site_symmetry_multiplicity
_atom_site_Wyckoff_symbol
_atom_site_fract_x
_atom_site_fract_y
_atom_site_fract_z
_atom_site_B_iso_or_equiv
_atom_site_occupancy
_atom_site_attached_hydrogens
Ni1 Ni2+ 4 e 0.5 0.84699(4) 0.25 0.00489(6) 1 0
O1 O2- 8 f 0.64364(9) 0.85089(15) -0.0195(2) 0.00458(11) 1 0
O2 O2- 8 f 0.36336(9) 0.59105(16) -0.0287(2) 0.00479(12) 1 0
B1 B3+ 8 f 0.31506(13) 0.6077(2) -0.3717(3) 0.00478(16) 1 0
loop_
_atom_site_aniso_label
_atom_site_aniso_type_symbol
_atom_site_aniso_U_11
_atom_site_aniso_U_22
_atom_site_aniso_U_33
_atom_site_aniso_U_12
_atom_site_aniso_U_13
_atom_site_aniso_U_23
Ni1 Ni2+ 0.00482(8) 0.00479(8) 0.00519(9) 0. 0.00177(6) 0.
O1 O2- 0.0038(2) 0.0046(3) 0.0053(3) -0.0001(2) 0.0014(2) -0.0006(2)
O2 O2- 0.0058(3) 0.0047(3) 0.0037(3) -0.0010(2) 0.0011(2) 0.0001(2)
B1 B3+ 0.0048(4) 0.0048(4) 0.0049(4) -0.0004(3) 0.0018(3) 0.0000(3)
#End of TTdata_418385-ICSD