
#(C) 2017 by FIZ Karlsruhe - Leibniz Institute for Information Infrastructure.  All rights reserved.
data_418410-ICSD
_database_code_ICSD 418410
_audit_creation_date 2008-08-01
_chemical_name_systematic 'Tetralanthanum pentachloride dicarbide'
_chemical_formula_structural 'La4 Cl5 C2'
_chemical_formula_sum 'C2 Cl5 La4'
_chemical_name_structure_type Pr4Cl5C2
_exptl_crystal_density_diffrn 4.67
_cell_measurement_temperature 293.
_publ_section_title

;
Rare earth halides Ln4 X5 Z. Part 2: An orthorhombic variant of Ln4 X5 Z
structure
;
loop_
_citation_id
_citation_journal_full
_citation_year
_citation_journal_volume
_citation_page_first
_citation_page_last
_citation_journal_id_ASTM
primary 'Zeitschrift fuer Anorganische und Allgemeine Chemie (1950) (DE)' 2008
634 498 502 ZAACAB
loop_
_publ_author_name
'Mattausch, H.J.'
'Schaloske, M.C.'
'Hoch, C.'
'Simon, A.'
_cell_length_a 3.921(1)
_cell_length_b 7.945(2)
_cell_length_c 17.297(4)
_cell_angle_alpha 90.
_cell_angle_beta 90.
_cell_angle_gamma 90.
_cell_volume 538.84
_cell_formula_units_Z 2
_symmetry_space_group_name_H-M 'I m m m'
_symmetry_Int_Tables_number 71
_refine_ls_R_factor_all 0.021
loop_
_symmetry_equiv_pos_site_id
_symmetry_equiv_pos_as_xyz
1 'x, y, -z'
2 'x, -y, z'
3 '-x, y, z'
4 '-x, -y, -z'
5 '-x, -y, z'
6 '-x, y, -z'
7 'x, -y, -z'
8 'x, y, z'
9 'x+1/2, y+1/2, -z+1/2'
10 'x+1/2, -y+1/2, z+1/2'
11 '-x+1/2, y+1/2, z+1/2'
12 '-x+1/2, -y+1/2, -z+1/2'
13 '-x+1/2, -y+1/2, z+1/2'
14 '-x+1/2, y+1/2, -z+1/2'
15 'x+1/2, -y+1/2, -z+1/2'
16 'x+1/2, y+1/2, z+1/2'
loop_
_atom_type_symbol
_atom_type_oxidation_number
La3+ 3
Cl1- -1
C3- -3.5
loop_
_atom_site_label
_atom_site_type_symbol
_atom_site_symmetry_multiplicity
_atom_site_Wyckoff_symbol
_atom_site_fract_x
_atom_site_fract_y
_atom_site_fract_z
_atom_site_B_iso_or_equiv
_atom_site_occupancy
_atom_site_attached_hydrogens
La1 La3+ 4 g 0. 0.28606(3) 0. 0.00695(9) 1 0
La2 La3+ 4 i -0.5 0.5 -0.174683(16) 0.01117(9) 1 0
Cl1 Cl1- 2 b -0.5 0. 0. 0.0186(4) 1 0
Cl2 Cl1- 8 l 0. 0.22270(12) 0.16830(5) 0.01478(18) 1 0
C1 C3- 4 i -0.5 0.5 -0.0416(3) 0.0086(7) 1 0
loop_
_atom_site_aniso_label
_atom_site_aniso_type_symbol
_atom_site_aniso_U_11
_atom_site_aniso_U_22
_atom_site_aniso_U_33
_atom_site_aniso_U_12
_atom_site_aniso_U_13
_atom_site_aniso_U_23
La1 La3+ 0.00720(15) 0.00495(11) 0.00869(12) 0. 0. 0.
La2 La3+ 0.01596(17) 0.00968(13) 0.00786(13) 0. 0. 0.
Cl1 Cl1- 0.0096(9) 0.0078(6) 0.0385(11) 0. 0. 0.
Cl2 Cl1- 0.0167(5) 0.0155(4) 0.0121(3) 0. 0. 0.0033(3)
C1 C3- 0.006(2) 0.0084(15) 0.0112(16) 0. 0. 0.
#End of TTdata_418410-ICSD