
#(C) 2017 by FIZ Karlsruhe - Leibniz Institute for Information Infrastructure.  All rights reserved.
data_41858-ICSD
_database_code_ICSD 41858
_audit_creation_date 2000-07-15
_audit_update_record 2011-08-01
_chemical_name_systematic 'Cobalt arsenide sulfide (1/1/1)'
_chemical_formula_structural 'Co As S'
_chemical_formula_sum 'As1 Co1 S1'
_chemical_name_structure_type Ru(S,Se)2
_chemical_name_mineral Cobaltite
_exptl_crystal_density_diffrn 6.34
_publ_section_title 'X-ray examination of cobaltite'
loop_
_citation_id
_citation_journal_full
_citation_year
_citation_journal_volume
_citation_page_first
_citation_page_last
_citation_journal_id_ASTM
primary 'Acta Crystallographica (1,1948-23,1967)' 1957 10 764 765 ACCRA9
loop_
_publ_author_name
'Onorato, E.'
_cell_length_a 5.582(2)
_cell_length_b 5.582(2)
_cell_length_c 5.582(2)
_cell_angle_alpha 90.
_cell_angle_beta 90.
_cell_angle_gamma 90.
_cell_volume 173.93
_cell_formula_units_Z 4
_symmetry_space_group_name_H-M 'P 1 21/c 1'
_symmetry_Int_Tables_number 14
loop_
_symmetry_equiv_pos_site_id
_symmetry_equiv_pos_as_xyz
1 'x, -y+1/2, z+1/2'
2 '-x, -y, -z'
3 '-x, y+1/2, -z+1/2'
4 'x, y, z'
loop_
_atom_type_symbol
_atom_type_oxidation_number
Co0+ 0
As0+ 0
S0+ 0
loop_
_atom_site_label
_atom_site_type_symbol
_atom_site_symmetry_multiplicity
_atom_site_Wyckoff_symbol
_atom_site_fract_x
_atom_site_fract_y
_atom_site_fract_z
_atom_site_B_iso_or_equiv
_atom_site_occupancy
_atom_site_attached_hydrogens
Co1 Co0+ 2 a 0 0 0 . 1. 0
Co2 Co0+ 2 d 0.5 0.5 0 . 1. 0
As1 As0+ 4 e 0.386 0.386 0.386 . 1. 0
S1 S0+ 4 e 0.886 0.114 0.614 . 1. 0
#End of TTdata_41858-ICSD