
data_41857-ICSD
_database_code_ICSD 41857
_audit_creation_date 2000-07-15
_audit_update_record 2016-02-01
_chemical_name_systematic 'Cobalt arsenide sulfide (1/1/1)'
_chemical_formula_structural 'Co As S'
_chemical_formula_sum 'As1 Co1 S1'
_chemical_name_structure_type PtGeSe
_chemical_name_mineral 'Cobaltite (ordered)'
_exptl_crystal_density_diffrn 6.34
_cell_length_a 5.582(2)
_cell_length_b 5.582(2)
_cell_length_c 5.582(2)
_cell_angle_alpha 90.
_cell_angle_beta 90.
_cell_angle_gamma 90.
_cell_volume 173.93
_cell_formula_units_Z 4
_symmetry_space_group_name_H-M 'P c a 21'
_symmetry_Int_Tables_number 29
loop_
_symmetry_equiv_pos_site_id
_symmetry_equiv_pos_as_xyz
1 'x+1/2, -y, z'
2 '-x+1/2, y, z+1/2'
3 '-x, -y, z+1/2'
4 'x, y, z'
loop_
_atom_type_symbol
_atom_type_oxidation_number
Co3+ 3
As2- -2
S1- -1
loop_
_atom_site_label
_atom_site_type_symbol
_atom_site_symmetry_multiplicity
_atom_site_Wyckoff_symbol
_atom_site_fract_x
_atom_site_fract_y
_atom_site_fract_z
_atom_site_B_iso_or_equiv
_atom_site_occupancy
_atom_site_attached_hydrogens
Co1 Co3+ 4 a -.01 0.006 0.011 . 1. 0
As1 As2- 4 a 0.38 0.381 0.383 . 1. 0
S1 S1- 4 a 0.62 0.38 -.382 . 1. 0
