
data_418760-ICSD
_database_code_ICSD 418760
_audit_creation_date 2008-08-01
_audit_update_record 2014-08-01
_chemical_name_systematic 'Bis(cesium chloride) manganese bis(vanadate(V))'
_chemical_formula_structural '(Cs Cl)2 Mn (V O3)2'
_chemical_formula_sum 'Cl2 Cs2 Mn1 O6 V2'
_chemical_name_structure_type Cs2Cl2Mn(VO3)2
_exptl_crystal_density_diffrn 3.65
_cell_measurement_temperature 293.
_cell_length_a 5.6344(11)
_cell_length_b 17.892(4)
_cell_length_c 5.3264(11)
_cell_angle_alpha 90.
_cell_angle_beta 90.
_cell_angle_gamma 90.
_cell_volume 536.96
_cell_formula_units_Z 2
_symmetry_space_group_name_H-M 'C m m 2'
_symmetry_Int_Tables_number 35
_refine_ls_R_factor_all 0.0287
loop_
_symmetry_equiv_pos_site_id
_symmetry_equiv_pos_as_xyz
1 'x, -y, z'
2 '-x, y, z'
3 '-x, -y, z'
4 'x, y, z'
5 'x+1/2, -y+1/2, z'
6 '-x+1/2, y+1/2, z'
7 '-x+1/2, -y+1/2, z'
8 'x+1/2, y+1/2, z'
loop_
_atom_type_symbol
_atom_type_oxidation_number
Cs1+ 1
Mn2+ 2
V5+ 5
O2- -2
Cl1- -1
loop_
_atom_site_label
_atom_site_type_symbol
_atom_site_symmetry_multiplicity
_atom_site_Wyckoff_symbol
_atom_site_fract_x
_atom_site_fract_y
_atom_site_fract_z
_atom_site_B_iso_or_equiv
_atom_site_occupancy
_atom_site_attached_hydrogens
Cs1 Cs1+ 4 e 0.5 0.12840(3) 0.86230(18) 0.0277(3) 1 0
Mn1 Mn2+ 2 a 0. 0. 0.3961(8) 0.0306(8) 1 0
V1 V5+ 4 e 0. 0.19981(8) 0.3593(5) 0.0166(4) 1 0
O1 O2- 4 e 0. 0.2020(5) 0.0565(17) 0.032(2) 1 0
O2 O2- 4 e 0. 0.1125(5) 0.460(2) 0.046(3) 1 0
O3 O2- 4 c 0.25 0.25 0.4755(15) 0.037(2) 1 0
Cl1 Cl1- 2 a 0. 0. -0.0737(7) 0.0318(11) 1 0
Cl2 Cl1- 2 b 0.5 0. 0.3833(17) 0.0487(13) 1 0
loop_
_atom_site_aniso_label
_atom_site_aniso_type_symbol
_atom_site_aniso_U_11
_atom_site_aniso_U_22
_atom_site_aniso_U_33
_atom_site_aniso_U_12
_atom_site_aniso_U_13
_atom_site_aniso_U_23
Cs1 Cs1+ 0.0319(4) 0.0240(4) 0.0272(4) 0. 0. -0.0015(5)
Mn1 Mn2+ 0.0455(13) 0.0140(10) 0.032(2) 0. 0. 0.
V1 V5+ 0.0146(7) 0.0145(7) 0.0206(8) 0. 0. 0.0013(16)
O1 O2- 0.027(5) 0.037(5) 0.033(4) 0. 0. 0.001(4)
O2 O2- 0.090(8) 0.016(4) 0.033(5) 0. 0. -0.001(4)
O3 O2- 0.030(5) 0.048(6) 0.034(4) -0.019(4) 0. 0.
Cl1 Cl1- 0.037(2) 0.032(2) 0.026(3) 0. 0. 0.
Cl2 Cl1- 0.086(3) 0.038(2) 0.022(3) 0. 0. 0.
