
data_418761-ICSD
_database_code_ICSD 418761
_audit_creation_date 2008-08-01
_chemical_name_systematic 'Bis(cesium bromide) manganese bis(vanadate(V))'
_chemical_formula_structural '(Cs Br)2 Mn (V O3)2'
_chemical_formula_sum 'Br2 Cs2 Mn1 O6 V2'
_chemical_name_structure_type Cs2Cl2Mn(VO3)2
_exptl_crystal_density_diffrn 3.95
_cell_measurement_temperature 293.
_cell_length_a 5.6809(11)
_cell_length_b 17.915(4)
_cell_length_c 5.6098(11)
_cell_angle_alpha 90.
_cell_angle_beta 90.
_cell_angle_gamma 90.
_cell_volume 570.93
_cell_formula_units_Z 2
_symmetry_space_group_name_H-M 'C m m 2'
_symmetry_Int_Tables_number 35
_refine_ls_R_factor_all 0.0593
loop_
_symmetry_equiv_pos_site_id
_symmetry_equiv_pos_as_xyz
1 'x, -y, z'
2 '-x, y, z'
3 '-x, -y, z'
4 'x, y, z'
5 'x+1/2, -y+1/2, z'
6 '-x+1/2, y+1/2, z'
7 '-x+1/2, -y+1/2, z'
8 'x+1/2, y+1/2, z'
loop_
_atom_type_symbol
_atom_type_oxidation_number
Cs1+ 1
Br1- -1
V5+ 5
Mn2+ 2
Br1- -1
O2- -2
loop_
_atom_site_label
_atom_site_type_symbol
_atom_site_symmetry_multiplicity
_atom_site_Wyckoff_symbol
_atom_site_fract_x
_atom_site_fract_y
_atom_site_fract_z
_atom_site_B_iso_or_equiv
_atom_site_occupancy
_atom_site_attached_hydrogens
Cs1 Cs1+ 4 e 0. -0.36558(7) -0.05654(15) 0.0415(7) 1 0
Br1 Br1- 2 b 0. -0.5 0.4642(10) 0.0452(10) 1 0
V1 V5+ 4 e 0. -0.20067(19) 0.4515(9) 0.0256(8) 1 0
Mn1 Mn2+ 2 a 0.5 -0.5 0.4885(13) 0.0410(17) 1 0
Br2 Br1- 2 a 0.5 -0.5 0.0084(8) 0.0479(12) 1 0
O1 O2- 4 e 0.5 -0.3828(11) -0.448(5) 0.060(6) 1 0
O2 O2- 4 e 0.5 -0.3005(13) 0.161(3) 0.045(5) 1 0
O3 O2- 4 c -0.25 -0.25 0.568(4) 0.050(5) 1 0
loop_
_atom_site_aniso_label
_atom_site_aniso_type_symbol
_atom_site_aniso_U_11
_atom_site_aniso_U_22
_atom_site_aniso_U_33
_atom_site_aniso_U_12
_atom_site_aniso_U_13
_atom_site_aniso_U_23
Cs1 Cs1+ 0.0498(10) 0.0354(9) 0.0394(11) 0. 0. -0.0008(9)
Br1 Br1- 0.0428(18) 0.056(2) 0.036(2) 0. 0. 0.
V1 V5+ 0.0190(16) 0.0288(17) 0.0292(19) 0. 0. 0.000(3)
Mn1 Mn2+ 0.047(3) 0.021(2) 0.055(5) 0. 0. 0.
Br2 Br1- 0.045(2) 0.048(2) 0.050(3) 0. 0. 0.
O1 O2- 0.068(13) 0.035(10) 0.077(18) 0. 0. -0.008(12)
O2 O2- 0.045(11) 0.060(13) 0.031(10) 0. 0. 0.006(8)
O3 O2- 0.053(10) 0.045(10) 0.051(11) -0.009(9) 0. 0.
