
#(C) 2017 by FIZ Karlsruhe - Leibniz Institute for Information Infrastructure.  All rights reserved.
data_418886-ICSD
_database_code_ICSD 418886
_audit_creation_date 2009-02-01
_chemical_name_systematic 'Barium cadmium antimonide (11/6/12)'
_chemical_formula_structural 'Ba11 Cd6 Sb12'
_chemical_formula_sum 'Ba11 Cd6 Sb12'
_chemical_name_structure_type Cd6Sr11Sb12
_exptl_crystal_density_diffrn 5.85
_cell_measurement_temperature 120.
_publ_section_title

;
Are Ba11 Cd6 Sb12 and Sr11 Cd6 Sb12 Zintl phases or not? A density-functional
theory study
;
loop_
_citation_id
_citation_journal_full
_citation_year
_citation_journal_volume
_citation_page_first
_citation_page_last
_citation_journal_id_ASTM
primary 'Journal of Computational Chemistry' 2008 29 2125 2133 JCCHDD
loop_
_publ_author_name
'Xia Sheng Qing'
'Bobev, S.'
_cell_length_a 34.082(10)
_cell_length_b 4.8915(15)
_cell_length_c 13.172(4)
_cell_angle_alpha 90.
_cell_angle_beta 109.638(3)
_cell_angle_gamma 90.
_cell_volume 2068.2
_cell_formula_units_Z 2
_symmetry_space_group_name_H-M 'C 1 2/m 1'
_symmetry_Int_Tables_number 12
_refine_ls_R_factor_all 0.0215
loop_
_symmetry_equiv_pos_site_id
_symmetry_equiv_pos_as_xyz
1 '-x, y, -z'
2 '-x, -y, -z'
3 'x, -y, z'
4 'x, y, z'
5 '-x+1/2, y+1/2, -z'
6 '-x+1/2, -y+1/2, -z'
7 'x+1/2, -y+1/2, z'
8 'x+1/2, y+1/2, z'
loop_
_atom_type_symbol
_atom_type_oxidation_number
Ba2+ 2
Cd2+ 2
Sb2- -2.833
loop_
_atom_site_label
_atom_site_type_symbol
_atom_site_symmetry_multiplicity
_atom_site_Wyckoff_symbol
_atom_site_fract_x
_atom_site_fract_y
_atom_site_fract_z
_atom_site_B_iso_or_equiv
_atom_site_occupancy
_atom_site_attached_hydrogens
Ba1 Ba2+ 4 i 0.01783(2) 0. 0.67910(5) 0.0086(1) 1 0
Ba2 Ba2+ 4 i 0.11339(2) 0. 0.50899(5) 0.0087(1) 1 0
Ba3 Ba2+ 4 i 0.12597(2) 0. 0.02006(5) 0.0095(1) 1 0
Ba4 Ba2+ 4 i 0.19877(2) 0. 0.34626(5) 0.0095(1) 1 0
Ba5 Ba2+ 4 i 0.28061(2) 0. 0.13375(5) 0.0096(1) 1 0
Ba6 Ba2+ 2 a 0. 0. 0. 0.0090(2) 1 0
Cd1 Cd2+ 4 i 0.21830(2) 0. 0.67133(6) 0.0105(2) 1 0
Cd2 Cd2+ 4 i 0.40044(2) 0. 0.25402(6) 0.0098(2) 1 0
Cd3 Cd2+ 4 i 0.54607(2) 0. 0.24043(6) 0.0134(2) 1 0
Sb1 Sb2- 4 i 0.08621(2) 0. 0.23577(5) 0.0085(1) 1 0
Sb2 Sb2- 4 i 0.14675(2) 0. 0.78214(5) 0.0080(1) 1 0
Sb3 Sb2- 4 i 0.30723(2) 0. 0.45486(5) 0.0086(1) 1 0
Sb4 Sb2- 4 i 0.45367(2) 0. 0.12059(5) 0.0083(1) 1 0
Sb5 Sb2- 4 i 0.45798(2) 0. 0.49362(5) 0.0084(1) 1 0
Sb6 Sb2- 4 i 0.70670(2) 0. 0.14350(5) 0.0083(1) 1 0
#End of TTdata_418886-ICSD