
#(C) 2017 by FIZ Karlsruhe - Leibniz Institute for Information Infrastructure.  All rights reserved.
data_418977-ICSD
_database_code_ICSD 418977
_audit_creation_date 2009-02-01
_chemical_name_systematic 'Scandium nickel stannide (1/1/1)'
_chemical_formula_structural 'Sc Ni Sn'
_chemical_formula_sum 'Ni1 Sc1 Sn1'
_chemical_name_structure_type TiNiSi-MgSrSi
_exptl_crystal_density_diffrn 6.82
_cell_measurement_temperature 293.
_publ_section_title

;
A 119Sn Moessbauer and 45Sc solid state NMR spectroscopic study of the
stannides Sc T Sn (T = Ni, Pd, Pt)
;
loop_
_citation_id
_citation_journal_full
_citation_year
_citation_journal_volume
_citation_page_first
_citation_page_last
_citation_journal_id_ASTM
primary 'Solid State Sciences' 2008 10 1395 1400 SSSCFJ
loop_
_publ_author_name
'Harmening, T.'
'Sebastian, C.P.'
'Zhang Long'
'Fehse, C.'
'Eckert, H.'
'Poettgen, R.'
_cell_length_a 6.637(2)
_cell_length_b 4.356(1)
_cell_length_c 7.488(2)
_cell_angle_alpha 90.
_cell_angle_beta 90.
_cell_angle_gamma 90.
_cell_volume 216.48
_cell_formula_units_Z 4
_symmetry_space_group_name_H-M 'P n m a'
_symmetry_Int_Tables_number 62
_refine_ls_R_factor_all 0.0445
loop_
_symmetry_equiv_pos_site_id
_symmetry_equiv_pos_as_xyz
1 'x+1/2, y, -z+1/2'
2 'x, -y+1/2, z'
3 '-x+1/2, y+1/2, z+1/2'
4 '-x, -y, -z'
5 '-x+1/2, -y, z+1/2'
6 '-x, y+1/2, -z'
7 'x+1/2, -y+1/2, -z+1/2'
8 'x, y, z'
loop_
_atom_type_symbol
_atom_type_oxidation_number
Sc0+ 0
Ni0+ 0
Sn0+ 0
loop_
_atom_site_label
_atom_site_type_symbol
_atom_site_symmetry_multiplicity
_atom_site_Wyckoff_symbol
_atom_site_fract_x
_atom_site_fract_y
_atom_site_fract_z
_atom_site_B_iso_or_equiv
_atom_site_occupancy
_atom_site_attached_hydrogens
Sc1 Sc0+ 4 c 0.0083(6) 0.25 0.7120(3) 0.0089(5) 1 0
Ni1 Ni0+ 4 c 0.2954(4) 0.25 0.4182(3) 0.0115(4) 1 0
Sn1 Sn0+ 4 c 0.2043(2) 0.25 0.08809(16) 0.0082(3) 1 0
loop_
_atom_site_aniso_label
_atom_site_aniso_type_symbol
_atom_site_aniso_U_11
_atom_site_aniso_U_22
_atom_site_aniso_U_33
_atom_site_aniso_U_12
_atom_site_aniso_U_13
_atom_site_aniso_U_23
Sc1 Sc0+ 0.0065(13) 0.0109(10) 0.0093(10) 0. 0.0006(12) 0.
Ni1 Ni0+ 0.0166(10) 0.0083(7) 0.0096(8) 0. 0.0040(13) 0.
Sn1 Sn0+ 0.0109(5) 0.0065(4) 0.0073(4) 0. -0.0016(6) 0.
#End of TTdata_418977-ICSD