
data_418976-ICSD
_database_code_ICSD 418976
_audit_creation_date 2009-02-01
_chemical_name_systematic 'Scandium palladium stannide (1/1/1)'
_chemical_formula_structural 'Sc Pd Sn'
_chemical_formula_sum 'Pd1 Sc1 Sn1'
_chemical_name_structure_type Mg2Ga
_exptl_crystal_density_diffrn 7.82
_cell_measurement_temperature 293.
_cell_length_a 7.475(2)
_cell_length_b 7.475(2)
_cell_length_c 7.108(2)
_cell_angle_alpha 90.
_cell_angle_beta 90.
_cell_angle_gamma 120.
_cell_volume 343.95
_cell_formula_units_Z 6
_symmetry_space_group_name_H-M 'P -6 2 c'
_symmetry_Int_Tables_number 190
_refine_ls_R_factor_all 0.022
loop_
_symmetry_equiv_pos_site_id
_symmetry_equiv_pos_as_xyz
1 '-x, -x+y, -z'
2 'x-y, -y, -z'
3 'y, x, -z'
4 '-x, -x+y, z+1/2'
5 'x-y, -y, z+1/2'
6 'y, x, z+1/2'
7 '-x+y, -x, -z+1/2'
8 '-y, x-y, -z+1/2'
9 'x, y, -z+1/2'
10 '-x+y, -x, z'
11 '-y, x-y, z'
12 'x, y, z'
loop_
_atom_type_symbol
_atom_type_oxidation_number
Sc0+ 0
Pd0+ 0
Sn0+ 0
loop_
_atom_site_label
_atom_site_type_symbol
_atom_site_symmetry_multiplicity
_atom_site_Wyckoff_symbol
_atom_site_fract_x
_atom_site_fract_y
_atom_site_fract_z
_atom_site_B_iso_or_equiv
_atom_site_occupancy
_atom_site_attached_hydrogens
Sc1 Sc0+ 6 h 0.3986(2) 0.0131(2) 0.25 0.0078(2) 1 0
Pd1 Pd0+ 4 f 0.3333 0.6667 0.02689(9) 0.00857(14) 1 0
Pd2 Pd0+ 2 b 0. 0. 0.25 0.00925(18) 1 0
Sn1 Sn0+ 6 g 0.72494(6) 0. 0. 0.00759(12) 1 0
loop_
_atom_site_aniso_label
_atom_site_aniso_type_symbol
_atom_site_aniso_U_11
_atom_site_aniso_U_22
_atom_site_aniso_U_33
_atom_site_aniso_U_12
_atom_site_aniso_U_13
_atom_site_aniso_U_23
Sc1 Sc0+ 0.0097(7) 0.0098(6) 0.0056(4) 0.0062(5) 0. 0.
Pd1 Pd0+ 0.00734(17) 0.00734(17) 0.0110(2) 0.00367(8) 0. 0.
Pd2 Pd0+ 0.0083(2) 0.0083(2) 0.0111(4) 0.00417(11) 0. 0.
Sn1 Sn0+ 0.00766(16) 0.0074(2) 0.00760(17) 0.00370(10) -0.00016(7) -0.00032(14)
