
data_41898-ICSD
_database_code_ICSD 41898
_audit_creation_date 2000-07-15
_audit_update_record 2015-02-01
_chemical_name_systematic 'Disilver barium tetrathiostannate(IV)'
_chemical_formula_structural 'Ag2 Ba (Sn S4)'
_chemical_formula_sum 'Ag2 Ba1 S4 Sn1'
_chemical_name_structure_type Ag2BaSnS4
_exptl_crystal_density_diffrn 5.03
_cell_length_a 7.127(3)
_cell_length_b 8.117(3)
_cell_length_c 6.854(3)
_cell_angle_alpha 90.
_cell_angle_beta 90.
_cell_angle_gamma 90.
_cell_volume 396.5
_cell_formula_units_Z 2
_symmetry_space_group_name_H-M 'I 2 2 2'
_symmetry_Int_Tables_number 23
_refine_ls_R_factor_all 0.04
loop_
_symmetry_equiv_pos_site_id
_symmetry_equiv_pos_as_xyz
1 '-x, y, -z'
2 'x, -y, -z'
3 '-x, -y, z'
4 'x, y, z'
5 '-x+1/2, y+1/2, -z+1/2'
6 'x+1/2, -y+1/2, -z+1/2'
7 '-x+1/2, -y+1/2, z+1/2'
8 'x+1/2, y+1/2, z+1/2'
loop_
_atom_type_symbol
_atom_type_oxidation_number
Ba2+ 2
Ag1+ 1
Sn4+ 4
S2- -2
loop_
_atom_site_label
_atom_site_type_symbol
_atom_site_symmetry_multiplicity
_atom_site_Wyckoff_symbol
_atom_site_fract_x
_atom_site_fract_y
_atom_site_fract_z
_atom_site_B_iso_or_equiv
_atom_site_occupancy
_atom_site_attached_hydrogens
Ba1 Ba2+ 2 a 0 0 0 . 1. 0
Ag1 Ag1+ 4 h 0.5 0.2041(2) 0 . 1. 0
Sn1 Sn4+ 2 d 0 0.5 0 . 1. 0
S1 S2- 8 k 0.1943(3) 0.3319(3) 0.2016(3) . 1. 0
loop_
_atom_site_aniso_label
_atom_site_aniso_type_symbol
_atom_site_aniso_beta_11
_atom_site_aniso_beta_22
_atom_site_aniso_beta_33
_atom_site_aniso_beta_12
_atom_site_aniso_beta_13
_atom_site_aniso_beta_23
Ba1 Ba2+ 0.0055(1) 0.0034(1) 0.0057(2) 0 0 0
Ag1 Ag1+ 0.0105(2) 0.0152(2) 0.0077(2) 0 -.0027(3) 0
Sn1 Sn4+ 0.0046(2) 0.0035(1) 0.0035(2) 0 0 0
S1 S2- 0.0042(3) 0.0043(3) 0.0031(3) 0.0007(3) -.0008(3) 0.0001(3)
