
#(C) 2017 by FIZ Karlsruhe - Leibniz Institute for Information Infrastructure.  All rights reserved.
data_419081-ICSD
_database_code_ICSD 419081
_audit_creation_date 2009-02-01
_chemical_name_systematic 'Lanthanum rhodium zinc'
_chemical_formula_structural 'La Rh Zn'
_chemical_formula_sum 'La1 Rh1 Zn1'
_chemical_name_structure_type CeRhAl
_exptl_crystal_density_diffrn 8.16
_cell_measurement_temperature 293.
_publ_section_title 'Structure and Properties of RE Rh Zn (RE = La, Ce, Pr, Nd)'
loop_
_citation_id
_citation_journal_full
_citation_year
_citation_journal_volume
_citation_page_first
_citation_page_last
_citation_journal_id_ASTM
primary 'Solid State Sciences' 2008 10 1895 1904 SSSCFJ
loop_
_publ_author_name
'Hermes, W.'
'Al Alam, A.F.'
'Matar, S.F.'
'Poettgen, R.'
_cell_length_a 7.385(4)
_cell_length_b 4.065(2)
_cell_length_c 16.565(6)
_cell_angle_alpha 90.
_cell_angle_beta 90.
_cell_angle_gamma 90.
_cell_volume 497.28
_cell_formula_units_Z 8
_symmetry_space_group_name_H-M 'P n m a'
_symmetry_Int_Tables_number 62
_refine_ls_R_factor_all 0.0279
loop_
_symmetry_equiv_pos_site_id
_symmetry_equiv_pos_as_xyz
1 'x+1/2, y, -z+1/2'
2 'x, -y+1/2, z'
3 '-x+1/2, y+1/2, z+1/2'
4 '-x, -y, -z'
5 '-x+1/2, -y, z+1/2'
6 '-x, y+1/2, -z'
7 'x+1/2, -y+1/2, -z+1/2'
8 'x, y, z'
loop_
_atom_type_symbol
_atom_type_oxidation_number
La0+ 0
Rh0+ 0
Zn0+ 0
loop_
_atom_site_label
_atom_site_type_symbol
_atom_site_symmetry_multiplicity
_atom_site_Wyckoff_symbol
_atom_site_fract_x
_atom_site_fract_y
_atom_site_fract_z
_atom_site_B_iso_or_equiv
_atom_site_occupancy
_atom_site_attached_hydrogens
La1 La0+ 4 c 0.04614(6) 0.25 0.28266(2) 0.00834(9) 1 0
La2 La0+ 4 c 0.16903(6) 0.25 0.05992(2) 0.00821(9) 1 0
Rh1 Rh0+ 4 c 0.24025(8) 0.25 0.43422(3) 0.01040(11) 1 0
Rh2 Rh0+ 4 c 0.24836(8) 0.25 0.68522(3) 0.01179(12) 1 0
Zn1 Zn0+ 4 c 0.99777(13) 0.25 0.56010(5) 0.00992(16) 1 0
Zn2 Zn0+ 4 c 0.12954(12) 0.25 0.85115(5) 0.01120(17) 1 0
loop_
_atom_site_aniso_label
_atom_site_aniso_type_symbol
_atom_site_aniso_U_11
_atom_site_aniso_U_22
_atom_site_aniso_U_33
_atom_site_aniso_U_12
_atom_site_aniso_U_13
_atom_site_aniso_U_23
La1 La0+ 0.00772(16) 0.00923(15) 0.00806(15) 0. 0.00043(13) 0.
La2 La0+ 0.00746(17) 0.00882(16) 0.00835(16) 0. 0.00010(13) 0.
Rh1 Rh0+ 0.0096(2) 0.0120(2) 0.0096(2) 0. 0.00020(19) 0.
Rh2 Rh0+ 0.0128(3) 0.0107(2) 0.0118(2) 0. -0.0017(2) 0.
Zn1 Zn0+ 0.0085(4) 0.0107(4) 0.0106(4) 0. -0.0008(3) 0.
Zn2 Zn0+ 0.0112(4) 0.0100(3) 0.0124(4) 0. -0.0004(3) 0.
#End of TTdata_419081-ICSD