
data_419660-ICSD
_database_code_ICSD 419660
_audit_creation_date 2009-02-01
_chemical_name_systematic 'Strontium nickel germanide (1/3/2)'
_chemical_formula_structural 'Sr Ni3 Ge2'
_chemical_formula_sum 'Ge2 Ni3 Sr1'
_chemical_name_structure_type YPtAs
_exptl_crystal_density_diffrn 6.72
_cell_measurement_temperature 293.
_cell_length_a 4.05110(10)
_cell_length_b 4.05110(10)
_cell_length_c 14.2187(6)
_cell_angle_alpha 90.
_cell_angle_beta 90.
_cell_angle_gamma 120.
_cell_volume 202.09
_cell_formula_units_Z 2
_symmetry_space_group_name_H-M 'P 63/m m c'
_symmetry_Int_Tables_number 194
_refine_ls_R_factor_all 0.0335
loop_
_symmetry_equiv_pos_site_id
_symmetry_equiv_pos_as_xyz
1 'x, x-y, -z+1/2'
2 '-x+y, y, -z+1/2'
3 '-y, -x, -z+1/2'
4 '-x+y, -x, -z+1/2'
5 '-y, x-y, -z+1/2'
6 'x, y, -z+1/2'
7 '-x, -x+y, z+1/2'
8 'x-y, -y, z+1/2'
9 'y, x, z+1/2'
10 'x-y, x, z+1/2'
11 'y, -x+y, z+1/2'
12 '-x, -y, z+1/2'
13 '-x, -x+y, -z'
14 'x-y, -y, -z'
15 'y, x, -z'
16 'x-y, x, -z'
17 'y, -x+y, -z'
18 '-x, -y, -z'
19 'x, x-y, z'
20 '-x+y, y, z'
21 '-y, -x, z'
22 '-x+y, -x, z'
23 '-y, x-y, z'
24 'x, y, z'
loop_
_atom_type_symbol
_atom_type_oxidation_number
Sr0+ 0
Ge0+ 0
Ni0+ 0
loop_
_atom_site_label
_atom_site_type_symbol
_atom_site_symmetry_multiplicity
_atom_site_Wyckoff_symbol
_atom_site_fract_x
_atom_site_fract_y
_atom_site_fract_z
_atom_site_B_iso_or_equiv
_atom_site_occupancy
_atom_site_attached_hydrogens
Sr1 Sr0+ 2 b 0. 0. 0.25 0.0174(5) 1 0
Ge1 Ge0+ 4 f 0.3333 0.6667 0.59577(11) 0.0177(5) 1 0
Ni1 Ni0+ 4 f 0.3333 0.6667 0.07266(14) 0.0189(5) 1 0
Ni2 Ni0+ 2 a 0. 0. 0. 0.0181(6) 1 0
loop_
_atom_site_aniso_label
_atom_site_aniso_type_symbol
_atom_site_aniso_U_11
_atom_site_aniso_U_22
_atom_site_aniso_U_33
_atom_site_aniso_U_12
_atom_site_aniso_U_13
_atom_site_aniso_U_23
Sr1 Sr0+ 0.0125(6) 0.0125(6) 0.0274(8) 0.0062(3) 0. 0.
Ge1 Ge0+ 0.0116(6) 0.0116(6) 0.0298(9) 0.0058(3) 0. 0.
Ni1 Ni0+ 0.0127(6) 0.0127(6) 0.0311(11) 0.0064(3) 0. 0.
Ni2 Ni0+ 0.0111(8) 0.0111(8) 0.0322(12) 0.0055(4) 0. 0.
