
#(C) 2017 by FIZ Karlsruhe - Leibniz Institute for Information Infrastructure.  All rights reserved.
data_419683-ICSD
_database_code_ICSD 419683
_audit_creation_date 2010-02-01
_chemical_name_systematic 'Scandium aluminium oxide carbide (1/1/1/1)'
_chemical_formula_structural 'Sc Al O C'
_chemical_formula_sum 'C1 Al1 O1 Sc1'
_exptl_crystal_density_diffrn 3.59
_cell_measurement_temperature 293.
_publ_section_title

;
Synthesis, structure, bonding, and properties of the oxide carbide Sc Al O C,
a new type of compound
;
loop_
_citation_id
_citation_journal_full
_citation_year
_citation_journal_volume
_citation_page_first
_citation_page_last
_citation_journal_id_ASTM
primary 'Journal of the American Chemical Society' 2009 131 12172 12179 JACSAT
loop_
_publ_author_name
'Schroeder, M.'
'Hillebrecht, H.'
_cell_length_a 3.2599(7)
_cell_length_b 3.2599(7)
_cell_length_c 30.116(9)
_cell_angle_alpha 90.
_cell_angle_beta 90.
_cell_angle_gamma 120.
_cell_volume 277.16
_cell_formula_units_Z 6
_symmetry_space_group_name_H-M 'R -3 m H'
_symmetry_Int_Tables_number 166
_refine_ls_R_factor_all 0.0212
loop_
_symmetry_equiv_pos_site_id
_symmetry_equiv_pos_as_xyz
1 'x-y, -y, -z'
2 '-x, -x+y, -z'
3 'y, x, -z'
4 'x-y, x, -z'
5 'y, -x+y, -z'
6 '-x, -y, -z'
7 '-x+y, y, z'
8 'x, x-y, z'
9 '-y, -x, z'
10 '-x+y, -x, z'
11 '-y, x-y, z'
12 'x, y, z'
13 'x-y+2/3, -y+1/3, -z+1/3'
14 '-x+2/3, -x+y+1/3, -z+1/3'
15 'y+2/3, x+1/3, -z+1/3'
16 'x-y+2/3, x+1/3, -z+1/3'
17 'y+2/3, -x+y+1/3, -z+1/3'
18 '-x+2/3, -y+1/3, -z+1/3'
19 '-x+y+2/3, y+1/3, z+1/3'
20 'x+2/3, x-y+1/3, z+1/3'
21 '-y+2/3, -x+1/3, z+1/3'
22 '-x+y+2/3, -x+1/3, z+1/3'
23 '-y+2/3, x-y+1/3, z+1/3'
24 'x+2/3, y+1/3, z+1/3'
25 'x-y+1/3, -y+2/3, -z+2/3'
26 '-x+1/3, -x+y+2/3, -z+2/3'
27 'y+1/3, x+2/3, -z+2/3'
28 'x-y+1/3, x+2/3, -z+2/3'
29 'y+1/3, -x+y+2/3, -z+2/3'
30 '-x+1/3, -y+2/3, -z+2/3'
31 '-x+y+1/3, y+2/3, z+2/3'
32 'x+1/3, x-y+2/3, z+2/3'
33 '-y+1/3, -x+2/3, z+2/3'
34 '-x+y+1/3, -x+2/3, z+2/3'
35 '-y+1/3, x-y+2/3, z+2/3'
36 'x+1/3, y+2/3, z+2/3'
loop_
_atom_type_symbol
_atom_type_oxidation_number
Sc3+ 3
Al3+ 3
O2- -2
C4- -4
loop_
_atom_site_label
_atom_site_type_symbol
_atom_site_symmetry_multiplicity
_atom_site_Wyckoff_symbol
_atom_site_fract_x
_atom_site_fract_y
_atom_site_fract_z
_atom_site_B_iso_or_equiv
_atom_site_occupancy
_atom_site_attached_hydrogens
Sc1 Sc3+ 3 a 0. 0. 0. 0.0058(2) 1 0
Sc2 Sc3+ 3 b 0. 0. 0.5 0.0071(2) 1 0
Al1 Al3+ 6 c 0. 0. 0.73919(3) 0.0052(2) 1 0
O1 O2- 6 c 0. 0. 0.19972(7) 0.0069(4) 1 0
C1 C4- 6 c 0. 0. 0.61816(11) 0.0066(5) 1 0
loop_
_atom_site_aniso_label
_atom_site_aniso_type_symbol
_atom_site_aniso_U_11
_atom_site_aniso_U_22
_atom_site_aniso_U_33
_atom_site_aniso_U_12
_atom_site_aniso_U_13
_atom_site_aniso_U_23
Sc1 Sc3+ 0.0056(3) 0.0056(3) 0.0062(4) 0.00279(14) 0. 0.
Sc2 Sc3+ 0.0055(3) 0.0055(3) 0.0105(4) 0.00273(14) 0. 0.
Al1 Al3+ 0.0057(3) 0.0057(3) 0.0043(4) 0.00284(14) 0. 0.
O1 O2- 0.0086(6) 0.0086(6) 0.0036(9) 0.0043(3) 0. 0.
C1 C4- 0.0060(7) 0.0060(7) 0.0077(11) 0.0030(3) 0. 0.
#End of TTdata_419683-ICSD