
#(C) 2017 by FIZ Karlsruhe - Leibniz Institute for Information Infrastructure.  All rights reserved.
data_419636-ICSD
_database_code_ICSD 419636
_audit_creation_date 2011-02-01
_chemical_name_systematic 'Hexabarium oxide bis(trinitridorhenate(IV))'
_chemical_formula_structural '(Ba6 O) (Re N3)2'
_chemical_formula_sum 'Ba6 N6 O1 Re2'
_chemical_name_structure_type Er3Ni2
_exptl_crystal_density_diffrn 6.44
_cell_measurement_temperature 300.
_publ_section_title
'(Ba6 O) (Re N3)2: Synthesis, crystal structure and physical properties'
loop_
_citation_id
_citation_journal_full
_citation_year
_citation_journal_volume
_citation_page_first
_citation_page_last
_citation_journal_id_ASTM
primary 'Zeitschrift fuer Anorganische und Allgemeine Chemie (1950) (DE)' 2010
636 2529 2531 ZAACAB
loop_
_publ_author_name
'Schmidt, C.L.'
'Dinnebier, R.'
'Jansen, M.'
_cell_length_a 8.1178(2)
_cell_length_b 8.1178(2)
_cell_length_c 17.5651(4)
_cell_angle_alpha 90
_cell_angle_beta 90
_cell_angle_gamma 120
_cell_volume 1002.44
_cell_formula_units_Z 3
_symmetry_space_group_name_H-M 'R -3 H'
_symmetry_Int_Tables_number 148
_refine_ls_R_factor_all 0.0392
loop_
_symmetry_equiv_pos_site_id
_symmetry_equiv_pos_as_xyz
1 'x-y, x, -z'
2 'y, -x+y, -z'
3 '-x, -y, -z'
4 '-x+y, -x, z'
5 '-y, x-y, z'
6 'x, y, z'
7 'x-y+2/3, x+1/3, -z+1/3'
8 'y+2/3, -x+y+1/3, -z+1/3'
9 '-x+2/3, -y+1/3, -z+1/3'
10 '-x+y+2/3, -x+1/3, z+1/3'
11 '-y+2/3, x-y+1/3, z+1/3'
12 'x+2/3, y+1/3, z+1/3'
13 'x-y+1/3, x+2/3, -z+2/3'
14 'y+1/3, -x+y+2/3, -z+2/3'
15 '-x+1/3, -y+2/3, -z+2/3'
16 '-x+y+1/3, -x+2/3, z+2/3'
17 '-y+1/3, x-y+2/3, z+2/3'
18 'x+1/3, y+2/3, z+2/3'
loop_
_atom_type_symbol
_atom_type_oxidation_number
Re4+ 4
Ba2+ 2
N3- -3
O2- -2
loop_
_atom_site_label
_atom_site_type_symbol
_atom_site_symmetry_multiplicity
_atom_site_Wyckoff_symbol
_atom_site_fract_x
_atom_site_fract_y
_atom_site_fract_z
_atom_site_B_iso_or_equiv
_atom_site_occupancy
_atom_site_attached_hydrogens
Re1 Re4+ 6 c 0 0 0.2494(4) .3(3) 1. 0
Ba1 Ba2+ 18 f 0.3210(3) 0.2313(2) 0.4180(3) .3(3) 1. 0
N1 N3- 18 f 0.249(2) 0.217(2) 0.2494(4) .3(3) 1. 0
O1 O2- 3 b 0 0 0.5 .3(3) 1. 0
#End of TTdata_419636-ICSD