
#(C) 2017 by FIZ Karlsruhe - Leibniz Institute for Information Infrastructure.  All rights reserved.
data_419759-ICSD
_database_code_ICSD 419759
_audit_creation_date 2009-08-01
_chemical_name_systematic 'Nickel palladium telluride (1/1/1)'
_chemical_formula_structural 'Ni Pd Te'
_chemical_formula_sum 'Ni1 Pd1 Te1'
_exptl_crystal_density_diffrn 9.87
_cell_measurement_temperature 293.
_publ_section_title
'Synthesis and crystal structures of Ni Pd Te and Ni2 Pd Se2'
loop_
_citation_id
_citation_journal_full
_citation_year
_citation_journal_volume
_citation_page_first
_citation_page_last
_citation_journal_id_ASTM
primary 'Zeitschrift fuer Anorganische und Allgemeine Chemie (1950) (DE)' 2009
635 48 52 ZAACAB
loop_
_publ_author_name
'Bichler, D.'
'Pocha, R.'
'Loehnert, C.'
'Johrendt, D.'
_cell_length_a 8.3368(17)
_cell_length_b 3.7578(8)
_cell_length_c 6.2899(13)
_cell_angle_alpha 90.
_cell_angle_beta 90.
_cell_angle_gamma 90.
_cell_volume 197.05
_cell_formula_units_Z 4
_symmetry_space_group_name_H-M 'P n m a'
_symmetry_Int_Tables_number 62
_refine_ls_R_factor_all 0.0234
loop_
_symmetry_equiv_pos_site_id
_symmetry_equiv_pos_as_xyz
1 'x+1/2, y, -z+1/2'
2 'x, -y+1/2, z'
3 '-x+1/2, y+1/2, z+1/2'
4 '-x, -y, -z'
5 '-x+1/2, -y, z+1/2'
6 '-x, y+1/2, -z'
7 'x+1/2, -y+1/2, -z+1/2'
8 'x, y, z'
loop_
_atom_type_symbol
_atom_type_oxidation_number
Ni0+ 0
Pd0+ 0
Te0+ 0
loop_
_atom_site_label
_atom_site_type_symbol
_atom_site_symmetry_multiplicity
_atom_site_Wyckoff_symbol
_atom_site_fract_x
_atom_site_fract_y
_atom_site_fract_z
_atom_site_B_iso_or_equiv
_atom_site_occupancy
_atom_site_attached_hydrogens
Ni1 Ni0+ 4 c 0.10598(12) 0.25 0.48859(19) 0.0106(2) 1 0
Pd1 Pd0+ 4 c 0.41473(8) 0.25 0.65407(11) 0.01101(16) 1 0
Te1 Te0+ 4 c 0.34341(6) 0.25 0.24164(10) 0.00813(16) 1 0
loop_
_atom_site_aniso_label
_atom_site_aniso_type_symbol
_atom_site_aniso_U_11
_atom_site_aniso_U_22
_atom_site_aniso_U_33
_atom_site_aniso_U_12
_atom_site_aniso_U_13
_atom_site_aniso_U_23
Ni1 Ni0+ 0.0112(5) 0.0101(4) 0.0107(6) 0. -0.0004(4) 0.
Pd1 Pd0+ 0.0108(2) 0.0135(3) 0.0087(3) 0. -0.0012(2) 0.
Te1 Te0+ 0.0101(2) 0.0073(2) 0.0070(3) 0. 0.00103(17) 0.
#End of TTdata_419759-ICSD