
#(C) 2017 by FIZ Karlsruhe - Leibniz Institute for Information Infrastructure.  All rights reserved.
data_419973-ICSD
_database_code_ICSD 419973
_audit_creation_date 2009-08-01
_chemical_name_systematic 'Barium plumbide (1/3)'
_chemical_formula_structural 'Ba Pb3'
_chemical_formula_sum 'Ba1 Pb3'
_chemical_name_structure_type BaPb3
_exptl_crystal_density_diffrn 9.61
_cell_measurement_temperature 293.
_publ_section_title

;
Mixed plumbides (Ca/Sr)(x) Ba(1-x) Pb3. Structural chemistry and chemical
bonding
;
loop_
_citation_id
_citation_journal_full
_citation_year
_citation_journal_volume
_citation_page_first
_citation_page_last
_citation_journal_id_ASTM
primary 'Zeitschrift fuer Naturforschung, B: Chemical Sciences' 2008 63 1383
1394 ZNBSEN
loop_
_publ_author_name
'Wendorff, M.'
'Roehr, C.'
_cell_length_a 7.2906(2)
_cell_length_b 7.2906(2)
_cell_length_c 25.6443(10)
_cell_angle_alpha 90.
_cell_angle_beta 90.
_cell_angle_gamma 120.
_cell_volume 1180.45
_cell_formula_units_Z 9
_symmetry_space_group_name_H-M 'R -3 m H'
_symmetry_Int_Tables_number 166
_refine_ls_R_factor_all 0.0353
loop_
_symmetry_equiv_pos_site_id
_symmetry_equiv_pos_as_xyz
1 'x-y, -y, -z'
2 '-x, -x+y, -z'
3 'y, x, -z'
4 'x-y, x, -z'
5 'y, -x+y, -z'
6 '-x, -y, -z'
7 '-x+y, y, z'
8 'x, x-y, z'
9 '-y, -x, z'
10 '-x+y, -x, z'
11 '-y, x-y, z'
12 'x, y, z'
13 'x-y+2/3, -y+1/3, -z+1/3'
14 '-x+2/3, -x+y+1/3, -z+1/3'
15 'y+2/3, x+1/3, -z+1/3'
16 'x-y+2/3, x+1/3, -z+1/3'
17 'y+2/3, -x+y+1/3, -z+1/3'
18 '-x+2/3, -y+1/3, -z+1/3'
19 '-x+y+2/3, y+1/3, z+1/3'
20 'x+2/3, x-y+1/3, z+1/3'
21 '-y+2/3, -x+1/3, z+1/3'
22 '-x+y+2/3, -x+1/3, z+1/3'
23 '-y+2/3, x-y+1/3, z+1/3'
24 'x+2/3, y+1/3, z+1/3'
25 'x-y+1/3, -y+2/3, -z+2/3'
26 '-x+1/3, -x+y+2/3, -z+2/3'
27 'y+1/3, x+2/3, -z+2/3'
28 'x-y+1/3, x+2/3, -z+2/3'
29 'y+1/3, -x+y+2/3, -z+2/3'
30 '-x+1/3, -y+2/3, -z+2/3'
31 '-x+y+1/3, y+2/3, z+2/3'
32 'x+1/3, x-y+2/3, z+2/3'
33 '-y+1/3, -x+2/3, z+2/3'
34 '-x+y+1/3, -x+2/3, z+2/3'
35 '-y+1/3, x-y+2/3, z+2/3'
36 'x+1/3, y+2/3, z+2/3'
loop_
_atom_type_symbol
_atom_type_oxidation_number
Pb0+ 0
Ba0+ 0
loop_
_atom_site_label
_atom_site_type_symbol
_atom_site_symmetry_multiplicity
_atom_site_Wyckoff_symbol
_atom_site_fract_x
_atom_site_fract_y
_atom_site_fract_z
_atom_site_B_iso_or_equiv
_atom_site_occupancy
_atom_site_attached_hydrogens
Pb1 Pb0+ 18 h 0.47931(5) 0.52069(5) 0.22322(2) 0.0081(3) 1 0
Pb2 Pb0+ 9 e 0.5 0. 0. 0.0100(3) 1 0
Ba1 Ba0+ 3 a 0. 0. 0. 0.0072(4) 1 0
Ba2 Ba0+ 6 c 0. 0. 0.21722(6) 0.0058(3) 1 0
loop_
_atom_site_aniso_label
_atom_site_aniso_type_symbol
_atom_site_aniso_U_11
_atom_site_aniso_U_22
_atom_site_aniso_U_33
_atom_site_aniso_U_12
_atom_site_aniso_U_13
_atom_site_aniso_U_23
Pb1 Pb0+ 0.0093(3) 0.0093(3) 0.0051(3) 0.0042(2) -0.00004(9) 0.00004(9)
Pb2 Pb0+ 0.0111(4) 0.0181(5) 0.0032(4) 0.0091(2) -0.00091(13) -0.0018(3)
Ba1 Ba0+ 0.0070(6) 0.0070(6) 0.0077(9) 0.0035(3) 0. 0.
Ba2 Ba0+ 0.0067(5) 0.0067(5) 0.0041(6) 0.0034(2) 0. 0.
#End of TTdata_419973-ICSD