
#(C) 2017 by FIZ Karlsruhe - Leibniz Institute for Information Infrastructure.  All rights reserved.
data_42006-ICSD
_database_code_ICSD 42006
_audit_creation_date 2000-07-15
_audit_update_record 2015-02-01
_chemical_name_systematic 'Barium niobium oxide (1/4/6)'
_chemical_formula_structural 'Ba Nb4 O6'
_chemical_formula_sum 'Ba1 Nb4 O6'
_chemical_name_structure_type BaNb4O6
_exptl_crystal_density_diffrn 7.05
_publ_section_title
'Electronic structure und crystal chemistry of niobium oxide phases'
loop_
_citation_id
_citation_journal_full
_citation_year
_citation_journal_volume
_citation_page_first
_citation_page_last
_citation_journal_id_ASTM
primary 'Physical Review, Serie 3. B - Condensed Matter (18,1978-)' 1994 50 3200
3208 PRBMDO
loop_
_publ_author_name
'Turzhevskii, S.A.'
'Novikov, D.L.'
'Gubanov, V.A.'
'Freeman, A.J.'
_cell_length_a 4.169
_cell_length_b 4.169
_cell_length_c 8.196
_cell_angle_alpha 90.
_cell_angle_beta 90.
_cell_angle_gamma 90.
_cell_volume 142.45
_cell_formula_units_Z 1
_symmetry_space_group_name_H-M 'P 4/m m m'
_symmetry_Int_Tables_number 123
loop_
_symmetry_equiv_pos_site_id
_symmetry_equiv_pos_as_xyz
1 'y, x, -z'
2 '-y, -x, -z'
3 '-y, x, -z'
4 'y, -x, -z'
5 '-x, y, -z'
6 'x, -y, -z'
7 'x, y, -z'
8 '-x, -y, -z'
9 '-y, -x, z'
10 'y, x, z'
11 'y, -x, z'
12 '-y, x, z'
13 'x, -y, z'
14 '-x, y, z'
15 '-x, -y, z'
16 'x, y, z'
loop_
_atom_type_symbol
_atom_type_oxidation_number
Ba2+ 2
Nb2+ 2.5
O2- -2
loop_
_atom_site_label
_atom_site_type_symbol
_atom_site_symmetry_multiplicity
_atom_site_Wyckoff_symbol
_atom_site_fract_x
_atom_site_fract_y
_atom_site_fract_z
_atom_site_B_iso_or_equiv
_atom_site_occupancy
_atom_site_attached_hydrogens
Ba1 Ba2+ 1 a 0 0 0 . 1. 0
Nb1 Nb2+ 2 e 0.5 0 0.5 . 1. 0
Nb2 Nb2+ 2 h 0.5 0.5 0.2467 . 1. 0
O1 O2- 1 c 0.5 0.5 0 . 1. 0
O2 O2- 4 i 0.5 0 0.2442 . 1. 0
O3 O2- 1 b 0 0 0.5 . 1. 0
#End of TTdata_42006-ICSD