
#(C) 2017 by FIZ Karlsruhe - Leibniz Institute for Information Infrastructure.  All rights reserved.
data_420616-ICSD
_database_code_ICSD 420616
_audit_creation_date 2010-02-01
_audit_update_record 2013-08-01
_chemical_name_systematic 'Decalanthanum hexa(ethenide) hexabromide'
_chemical_formula_structural 'La10 (C2)6 Br6'
_chemical_formula_sum 'C12 Br6 La10'
_chemical_name_structure_type La10(C2)6Br6
_exptl_crystal_density_diffrn 5.3
_cell_measurement_temperature 293.
_publ_section_title

;
Rare earth ethenide-halides Ln2n+6 (C2)n+4 X2n+2: Preparation, crystal
structure, intergrowth and twinning
;
loop_
_citation_id
_citation_journal_full
_citation_year
_citation_journal_volume
_citation_page_first
_citation_page_last
_citation_journal_id_ASTM
primary 'Zeitschrift fuer Anorganische und Allgemeine Chemie (1950) (DE)' 2009
635 1527 1535 ZAACAB
loop_
_publ_author_name
'Mattausch, H.J.'
'Kienle, L.'
'Duppel, V.'
'Hoch, C.'
'Simon, A.'
_cell_length_a 22.809(5)
_cell_length_b 3.9855(8)
_cell_length_c 16.599(3)
_cell_angle_alpha 90.
_cell_angle_beta 123.32(3)
_cell_angle_gamma 90.
_cell_volume 1260.89
_cell_formula_units_Z 2
_symmetry_space_group_name_H-M 'C 1 2/m 1'
_symmetry_Int_Tables_number 12
_refine_ls_R_factor_all 0.0537
loop_
_symmetry_equiv_pos_site_id
_symmetry_equiv_pos_as_xyz
1 '-x, y, -z'
2 '-x, -y, -z'
3 'x, -y, z'
4 'x, y, z'
5 '-x+1/2, y+1/2, -z'
6 '-x+1/2, -y+1/2, -z'
7 'x+1/2, -y+1/2, z'
8 'x+1/2, y+1/2, z'
loop_
_atom_type_symbol
_atom_type_oxidation_number
La3+ 3
Br1- -1
C2- -2
loop_
_atom_site_label
_atom_site_type_symbol
_atom_site_symmetry_multiplicity
_atom_site_Wyckoff_symbol
_atom_site_fract_x
_atom_site_fract_y
_atom_site_fract_z
_atom_site_B_iso_or_equiv
_atom_site_occupancy
_atom_site_attached_hydrogens
La1 La3+ 4 i 0.16976(4) 0. 0.38003(6) 0.01450(19) 1 0
La2 La3+ 4 i 0.33429(4) -0.5 0.39551(6) 0.01329(19) 1 0
La3 La3+ 4 i -0.00376(4) -0.5 0.10200(6) 0.01279(19) 1 0
La4 La3+ 4 i 0.16186(4) 0. 0.14204(6) 0.0170(2) 1 0
La5 La3+ 4 i 0.49842(4) -1. 0.39345(6) 0.01200(19) 1 0
Br1 Br1- 4 i 0.33013(7) -1. 0.24684(10) 0.0178(3) 1 0
Br2 Br1- 4 i 0.16956(8) -0.5 0.00772(12) 0.0211(3) 1 0
Br3 Br1- 4 i 0.48460(10) -1.5 0.23858(12) 0.0227(3) 1 0
C1 C2- 4 i 0.6309(7) -1. 0.4671(10) 0.012(2) 1 0
C2 C2- 4 i 0.1292(8) -0.5 0.2286(12) 0.022(3) 1 0
C3 C2- 4 i 0.0355(6) 0. 0.0317(8) 0.007(2) 1 0
C4 C2- 4 i 0.3081(8) 0. 0.4873(11) 0.015(3) 1 0
C5 C2- 4 i 0.1873(8) -0.5 0.2702(10) 0.014(2) 1 0
C6 C2- 4 i 0.4654(6) -0.5 0.4758(9) 0.007(2) 1 0
loop_
_atom_site_aniso_label
_atom_site_aniso_type_symbol
_atom_site_aniso_U_11
_atom_site_aniso_U_22
_atom_site_aniso_U_33
_atom_site_aniso_U_12
_atom_site_aniso_U_13
_atom_site_aniso_U_23
La1 La3+ 0.0151(4) 0.0129(3) 0.0172(4) 0. 0.0100(4) 0.
La2 La3+ 0.0128(4) 0.0114(3) 0.0162(4) 0. 0.0083(3) 0.
La3 La3+ 0.0151(4) 0.0140(4) 0.0193(5) 0. 0.0078(4) 0.
La4 La3+ 0.0138(4) 0.0100(3) 0.0142(4) 0. 0.0075(3) 0.
La5 La3+ 0.0126(4) 0.0098(3) 0.0128(4) 0. 0.0064(3) 0.
Br1 Br1- 0.0426(9) 0.0124(6) 0.0227(8) 0. 0.0241(7) 0.
Br2 Br1- 0.0174(6) 0.0195(7) 0.0175(7) 0. 0.0103(6) 0.
Br3 Br1- 0.0221(7) 0.0206(7) 0.0247(8) 0. 0.0155(7) 0.
#End of TTdata_420616-ICSD