
#(C) 2017 by FIZ Karlsruhe - Leibniz Institute for Information Infrastructure.  All rights reserved.
data_42063-ICSD
_database_code_ICSD 42063
_audit_creation_date 2000-07-15
_audit_update_record 2015-02-01
_chemical_name_systematic 'Lithium germanide (7/2)'
_chemical_formula_structural 'Li7 Ge2'
_chemical_formula_sum 'Ge2 Li7'
_chemical_name_structure_type Li7Ge2
_exptl_crystal_density_diffrn 2.28
_publ_section_title 'Die Struktur der Phase Li7 Ge2'
loop_
_citation_id
_citation_journal_full
_citation_year
_citation_journal_volume
_citation_page_first
_citation_page_last
_citation_journal_id_ASTM
primary

;
Zeitschrift fuer Naturforschung, Teil B. Anorganische Chemie, Organische
Chemie (2,1947-32,1977)
; 1972 27 1157 1160 ZENBAX
loop_
_publ_author_name
'Hopf, V.'
'Mueller, W.'
'Schaefer, H.'
_cell_length_a 9.24(2)
_cell_length_b 13.21(2)
_cell_length_c 4.63(1)
_cell_angle_alpha 90.
_cell_angle_beta 90.
_cell_angle_gamma 90.
_cell_volume 565.14
_cell_formula_units_Z 4
_symmetry_space_group_name_H-M 'C m m m'
_symmetry_Int_Tables_number 65
_refine_ls_R_factor_all 0.113
loop_
_symmetry_equiv_pos_site_id
_symmetry_equiv_pos_as_xyz
1 'x, -y, z'
2 '-x, y, z'
3 'x, y, -z'
4 '-x, -y, -z'
5 '-x, y, -z'
6 'x, -y, -z'
7 '-x, -y, z'
8 'x, y, z'
9 'x+1/2, -y+1/2, z'
10 '-x+1/2, y+1/2, z'
11 'x+1/2, y+1/2, -z'
12 '-x+1/2, -y+1/2, -z'
13 '-x+1/2, y+1/2, -z'
14 'x+1/2, -y+1/2, -z'
15 '-x+1/2, -y+1/2, z'
16 'x+1/2, y+1/2, z'
loop_
_atom_type_symbol
_atom_type_oxidation_number
Ge0+ 0
Li0+ 0
loop_
_atom_site_label
_atom_site_type_symbol
_atom_site_symmetry_multiplicity
_atom_site_Wyckoff_symbol
_atom_site_fract_x
_atom_site_fract_y
_atom_site_fract_z
_atom_site_B_iso_or_equiv
_atom_site_occupancy
_atom_site_attached_hydrogens
Ge1 Ge0+ 4 i 0 0.314 0 . 1. 0
Ge2 Ge0+ 4 h 0.142 0 0.5 . 1. 0
Li1 Li0+ 2 a 0 0 0 . 1. 0
Li2 Li0+ 2 c 0.5 0 0.5 . 1. 0
Li3 Li0+ 4 g 0.34 0 0 . 1. 0
Li4 Li0+ 4 j 0 0.18 0.5 . 1. 0
Li5 Li0+ 8 p 0.181 0.159 0 . 1. 0
Li6 Li0+ 8 q 0.319 0.149 0.5 . 1. 0
#End of TTdata_42063-ICSD