
#(C) 2017 by FIZ Karlsruhe - Leibniz Institute for Information Infrastructure.  All rights reserved.
data_420725-ICSD
_database_code_ICSD 420725
_audit_creation_date 2010-02-01
_audit_update_record 2011-02-01
_chemical_name_systematic 'Rhodium bismuth sulfide (3/2/2)'
_chemical_formula_structural 'Rh3 Bi2 S2'
_chemical_formula_sum 'Bi2 Rh3 S2'
_chemical_name_structure_type Ni3Bi2S2
_exptl_crystal_density_diffrn 9.57
_cell_measurement_temperature 293.
_publ_section_title

;
Half antiperovskites: IV. Crystallographic and electronic structure
investigations on A2 Rh3 S2 (A = In, Sn, Tl, Pb, Bi)
;
loop_
_citation_id
_citation_journal_full
_citation_year
_citation_journal_volume
_citation_page_first
_citation_page_last
_citation_journal_id_ASTM
primary 'Zeitschrift fuer Anorganische und Allgemeine Chemie (1950) (DE)' 2009
635 2410 2428 ZAACAB
loop_
_publ_author_name
'Anusca, I.'
'Schmid, A.'
'Peter, Ph.'
'Rothballer, J.'
'Pielnhofer, F.'
'Weihrich, R.'
_cell_length_a 11.2771(14)
_cell_length_b 8.3701(5)
_cell_length_c 7.9324(11)
_cell_angle_alpha 90.
_cell_angle_beta 133.294(7)
_cell_angle_gamma 90.
_cell_volume 544.97
_cell_formula_units_Z 4
_symmetry_space_group_name_H-M 'C 1 2/m 1'
_symmetry_Int_Tables_number 12
_refine_ls_R_factor_all 0.0716
loop_
_symmetry_equiv_pos_site_id
_symmetry_equiv_pos_as_xyz
1 '-x, y, -z'
2 '-x, -y, -z'
3 'x, -y, z'
4 'x, y, z'
5 '-x+1/2, y+1/2, -z'
6 '-x+1/2, -y+1/2, -z'
7 'x+1/2, -y+1/2, z'
8 'x+1/2, y+1/2, z'
loop_
_atom_type_symbol
_atom_type_oxidation_number
Bi0+ 0
Rh0+ 0
S0+ 0
loop_
_atom_site_label
_atom_site_type_symbol
_atom_site_symmetry_multiplicity
_atom_site_Wyckoff_symbol
_atom_site_fract_x
_atom_site_fract_y
_atom_site_fract_z
_atom_site_B_iso_or_equiv
_atom_site_occupancy
_atom_site_attached_hydrogens
Bi1 Bi0+ 4 i 0.49154(8) 0.5 0.24072(10) 0.0239(2) 1 0
Bi2 Bi0+ 4 i 0.49943(7) 0. 0.24776(10) 0.0215(2) 1 0
Rh1 Rh0+ 4 e 0.25 0.25 0. 0.0219(4) 1 0
Rh2 Rh0+ 4 g 0.5 0.24171(19) 0. 0.0257(4) 1 0
Rh3 Rh0+ 4 i 0.75313(18) 0.5 0.2526(2) 0.0270(4) 1 0
S1 S0+ 8 j 0.2753(4) 0.2712(4) 0.3114(6) 0.0234(7) 1 0
loop_
_atom_site_aniso_label
_atom_site_aniso_type_symbol
_atom_site_aniso_U_11
_atom_site_aniso_U_22
_atom_site_aniso_U_33
_atom_site_aniso_U_12
_atom_site_aniso_U_13
_atom_site_aniso_U_23
Bi1 Bi0+ 0.0266(3) 0.0158(4) 0.0277(3) 0. 0.0179(2) 0.
Bi2 Bi0+ 0.0263(3) 0.0145(4) 0.0249(3) 0. 0.0180(2) 0.
Rh1 Rh0+ 0.0258(5) 0.0173(7) 0.0272(5) 0.0013(4) 0.0200(4) 0.0011(4)
Rh2 Rh0+ 0.0264(6) 0.0266(8) 0.0301(5) 0. 0.0217(4) 0.
Rh3 Rh0+ 0.0338(7) 0.0142(8) 0.0286(6) 0. 0.0197(5) 0.
S1 S0+ 0.0301(12) 0.0154(14) 0.0333(11) 0.0017(11) 0.0250(9) 0.0018(11)
#End of TTdata_420725-ICSD