
#(C) 2017 by FIZ Karlsruhe - Leibniz Institute for Information Infrastructure.  All rights reserved.
data_420834-ICSD
_database_code_ICSD 420834
_audit_creation_date 2010-08-01
_audit_update_record 2012-02-01
_chemical_name_systematic 'Barium cadmium antimonide (2/2/3)'
_chemical_formula_structural 'Ba2 Cd2 Sb3'
_chemical_formula_sum 'Ba2 Cd2 Sb3'
_chemical_name_structure_type Sr2Zn2As3
_exptl_crystal_density_diffrn 6.13
_cell_measurement_temperature 170.
_publ_section_title

;
Synthesis, crystallographic and theoretical studies of the new Zintl phases
Ba2 Cd2 Pn3 (Pn= As, Sb) and the solid solutions (Ba1-x Srx)2 Cd2 Sb3 and Ba2
Cd2 (Sb1-x Asx)3
;
loop_
_citation_id
_citation_journal_full
_citation_year
_citation_journal_volume
_citation_page_first
_citation_page_last
_citation_journal_id_ASTM
primary 'Dalton Transactions' 2010 39 1063 1070 DTARAF
loop_
_publ_author_name
'Saparov, B.'
'He Hua'
'Zhang Xiaohang'
'Greene, R.'
'Bobev, S.'
_cell_length_a 18.072(4)
_cell_length_b 4.8238(10)
_cell_length_c 13.403(3)
_cell_angle_alpha 90.
_cell_angle_beta 126.747(2)
_cell_angle_gamma 90.
_cell_volume 936.23
_cell_formula_units_Z 4
_symmetry_space_group_name_H-M 'C 1 2/m 1'
_symmetry_Int_Tables_number 12
_refine_ls_R_factor_all 0.0232
loop_
_symmetry_equiv_pos_site_id
_symmetry_equiv_pos_as_xyz
1 '-x, y, -z'
2 '-x, -y, -z'
3 'x, -y, z'
4 'x, y, z'
5 '-x+1/2, y+1/2, -z'
6 '-x+1/2, -y+1/2, -z'
7 'x+1/2, -y+1/2, z'
8 'x+1/2, y+1/2, z'
loop_
_atom_type_symbol
_atom_type_oxidation_number
Ba2+ 2
Cd2+ 2
Sb2- -2.667
loop_
_atom_site_label
_atom_site_type_symbol
_atom_site_symmetry_multiplicity
_atom_site_Wyckoff_symbol
_atom_site_fract_x
_atom_site_fract_y
_atom_site_fract_z
_atom_site_B_iso_or_equiv
_atom_site_occupancy
_atom_site_attached_hydrogens
Ba1 Ba2+ 4 i 0.26447(3) 0. 0.66315(4) 0.00971(11) 1 0
Ba2 Ba2+ 4 i 0.39784(3) 0. 0.05511(4) 0.01067(11) 1 0
Cd1 Cd2+ 4 i 0.04105(4) 0. 0.31104(5) 0.01182(13) 1 0
Cd2 Cd2+ 4 i 0.40899(4) 0. 0.34633(5) 0.01253(13) 1 0
Sb1 Sb2- 4 i 0.08039(4) 0. 0.12521(5) 0.01006(12) 1 0
Sb2 Sb2- 4 i 0.15526(4) 0. 0.80402(5) 0.00988(12) 1 0
Sb3 Sb2- 4 i 0.38686(4) 0. 0.54197(4) 0.00913(12) 1 0
loop_
_atom_site_aniso_label
_atom_site_aniso_type_symbol
_atom_site_aniso_U_11
_atom_site_aniso_U_22
_atom_site_aniso_U_33
_atom_site_aniso_U_12
_atom_site_aniso_U_13
_atom_site_aniso_U_23
Ba1 Ba2+ 0.0103(2) 0.0101(2) 0.0094(2) 0. 0.00623(19) 0.
Ba2 Ba2+ 0.0132(2) 0.0097(2) 0.0110(2) 0. 0.00831(19) 0.
Cd1 Cd2+ 0.0120(3) 0.0108(3) 0.0111(3) 0. 0.0061(2) 0.
Cd2 Cd2+ 0.0161(3) 0.0119(3) 0.0135(3) 0. 0.0109(3) 0.
Sb1 Sb2- 0.0105(3) 0.0106(2) 0.0085(2) 0. 0.0054(2) 0.
Sb2 Sb2- 0.0109(3) 0.0097(2) 0.0108(2) 0. 0.0074(2) 0.
Sb3 Sb2- 0.0113(3) 0.0084(2) 0.0092(2) 0. 0.0069(2) 0.
#End of TTdata_420834-ICSD