
#(C) 2017 by FIZ Karlsruhe - Leibniz Institute for Information Infrastructure.  All rights reserved.
data_421074-ICSD
_database_code_ICSD 421074
_audit_creation_date 2010-08-01
_chemical_name_systematic 'Calcium nickel germanide (2/3/2)'
_chemical_formula_structural 'Ca2 Ni3 Ge2'
_chemical_formula_sum 'Ca2 Ge2 Ni3'
_exptl_crystal_density_diffrn 5.2
_cell_measurement_temperature 293.
_publ_section_title

;
Synthesis, structure, bonding of Ca2 Ni3 Ge2 and comparison with Ca Ni Ge, Sr
Ni2 Ge, and Ca3 Ni3 Si2
;
loop_
_citation_id
_citation_journal_full
_citation_year
_citation_journal_volume
_citation_page_first
_citation_page_last
_citation_journal_id_ASTM
primary 'Zeitschrift fuer Anorganische und Allgemeine Chemie (1950) (DE)' 2010
636 100 107 ZAACAB
loop_
_publ_author_name
'Hlukhyy, V.'
'Faessler, T.F.'
_cell_length_a 9.0975(16)
_cell_length_b 4.0138(6)
_cell_length_c 7.0190(15)
_cell_angle_alpha 90.
_cell_angle_beta 90.
_cell_angle_gamma 90.
_cell_volume 256.3
_cell_formula_units_Z 2
_symmetry_space_group_name_H-M 'P m m a'
_symmetry_Int_Tables_number 51
_refine_ls_R_factor_all 0.0245
loop_
_symmetry_equiv_pos_site_id
_symmetry_equiv_pos_as_xyz
1 '-x+1/2, -y, z'
2 'x+1/2, -y, -z'
3 'x, -y, z'
4 '-x, -y, -z'
5 'x+1/2, y, -z'
6 '-x+1/2, y, z'
7 '-x, y, -z'
8 'x, y, z'
loop_
_atom_type_symbol
_atom_type_oxidation_number
Ca0+ 0
Ge0+ 0
Ni0+ 0
loop_
_atom_site_label
_atom_site_type_symbol
_atom_site_symmetry_multiplicity
_atom_site_Wyckoff_symbol
_atom_site_fract_x
_atom_site_fract_y
_atom_site_fract_z
_atom_site_B_iso_or_equiv
_atom_site_occupancy
_atom_site_attached_hydrogens
Ca1 Ca0+ 2 e 0.25 0. 0.8296(2) 0.0154(3) 1 0
Ca2 Ca0+ 2 d 0.5 0.5 0.5 0.0154(3) 1 0
Ge1 Ge0+ 2 e 0.25 0. 0.39856(12) 0.0132(2) 1 0
Ge2 Ge0+ 2 b 0.5 0.5 0. 0.0148(2) 1 0
Ni1 Ni0+ 2 f 0.25 0.5 0.18594(15) 0.0151(3) 1 0
Ni2 Ni0+ 4 i 0.42612(8) 0. 0.15439(10) 0.0134(2) 1 0
loop_
_atom_site_aniso_label
_atom_site_aniso_type_symbol
_atom_site_aniso_U_11
_atom_site_aniso_U_22
_atom_site_aniso_U_33
_atom_site_aniso_U_12
_atom_site_aniso_U_13
_atom_site_aniso_U_23
Ca1 Ca0+ 0.0163(7) 0.0172(8) 0.0129(7) 0. 0. 0.
Ca2 Ca0+ 0.0170(7) 0.0120(7) 0.0171(8) 0. -0.0019(6) 0.
Ge1 Ge0+ 0.0150(4) 0.0125(4) 0.0121(4) 0. 0. 0.
Ge2 Ge0+ 0.0178(4) 0.0092(4) 0.0173(4) 0. 0.0015(3) 0.
Ni1 Ni0+ 0.0171(5) 0.0101(5) 0.0181(5) 0. 0. 0.
Ni2 Ni0+ 0.0161(4) 0.0108(3) 0.0132(4) 0. 0.0020(3) 0.
#End of TTdata_421074-ICSD