
#(C) 2017 by FIZ Karlsruhe - Leibniz Institute for Information Infrastructure.  All rights reserved.
data_421255-ICSD
_database_code_ICSD 421255
_audit_creation_date 2011-02-01
_chemical_name_systematic 'Scandium rhodium silicide (3/1/3)'
_chemical_formula_structural 'Sc3 Rh Si3'
_chemical_formula_sum 'Rh1 Sc3 Si3'
_chemical_name_structure_type RhSc3Si3
_exptl_crystal_density_diffrn 4.45
_cell_measurement_temperature 293.
_publ_section_title

;
Ternary silicides Sc3 T Si3 (T = Ru, Rh, Ir, Pt) - structure, chemical bonding
and solid state NMR
;
loop_
_citation_id
_citation_journal_full
_citation_year
_citation_journal_volume
_citation_page_first
_citation_page_last
_citation_journal_id_ASTM
primary 'Zeitschrift fuer Anorganische und Allgemeine Chemie (1950) (DE)' 2010
636 1839 1850 ZAACAB
loop_
_publ_author_name
'Harmening, T.'
'Mohr, D.'
'Eckert, H.'
'Al Alam, A.'
'Matar, S.F.'
'Poettgen, R.'
_cell_length_a 11.668(1)
_cell_length_b 4.0185(5)
_cell_length_c 10.197(1)
_cell_angle_alpha 90.
_cell_angle_beta 90.
_cell_angle_gamma 90.
_cell_volume 478.12
_cell_formula_units_Z 4
_symmetry_space_group_name_H-M 'P n m a'
_symmetry_Int_Tables_number 62
_refine_ls_R_factor_all 0.018
loop_
_symmetry_equiv_pos_site_id
_symmetry_equiv_pos_as_xyz
1 'x+1/2, y, -z+1/2'
2 'x, -y+1/2, z'
3 '-x+1/2, y+1/2, z+1/2'
4 '-x, -y, -z'
5 '-x+1/2, -y, z+1/2'
6 '-x, y+1/2, -z'
7 'x+1/2, -y+1/2, -z+1/2'
8 'x, y, z'
loop_
_atom_type_symbol
_atom_type_oxidation_number
Sc0+ 0
Rh0+ 0
Si0+ 0
loop_
_atom_site_label
_atom_site_type_symbol
_atom_site_symmetry_multiplicity
_atom_site_Wyckoff_symbol
_atom_site_fract_x
_atom_site_fract_y
_atom_site_fract_z
_atom_site_B_iso_or_equiv
_atom_site_occupancy
_atom_site_attached_hydrogens
Sc1 Sc0+ 4 c 0.52026(8) 0.25 0.62274(8) 0.00331(17) 1 0
Sc2 Sc0+ 4 c 0.10166(9) 0.25 0.57890(8) 0.00384(19) 1 0
Sc3 Sc0+ 4 c 0.29946(8) 0.25 0.84075(8) 0.00412(18) 1 0
Rh1 Rh0+ 4 c 0.17798(4) 0.25 0.11063(3) 0.00336(10) 1 0
Si1 Si0+ 4 c 0.32298(13) 0.25 0.48502(10) 0.0039(2) 1 0
Si2 Si0+ 4 c 0.34208(12) 0.25 0.24985(11) 0.0035(3) 1 0
Si3 Si0+ 4 c 0.04489(13) 0.25 0.30684(11) 0.0036(3) 1 0
loop_
_atom_site_aniso_label
_atom_site_aniso_type_symbol
_atom_site_aniso_U_11
_atom_site_aniso_U_22
_atom_site_aniso_U_33
_atom_site_aniso_U_12
_atom_site_aniso_U_13
_atom_site_aniso_U_23
Sc1 Sc0+ 0.0035(4) 0.0036(4) 0.0027(3) 0. -0.0010(3) 0.
Sc2 Sc0+ 0.0051(5) 0.0040(5) 0.0025(3) 0. 0.0003(3) 0.
Sc3 Sc0+ 0.0034(4) 0.0032(4) 0.0057(3) 0. 0.0002(3) 0.
Rh1 Rh0+ 0.00442(18) 0.00340(17) 0.00225(13) 0. -0.00072(13) 0.
Si1 Si0+ 0.0046(6) 0.0042(6) 0.0029(5) 0. -0.0002(5) 0.
Si2 Si0+ 0.0046(7) 0.0023(6) 0.0038(5) 0. 0.0005(4) 0.
Si3 Si0+ 0.0035(6) 0.0025(7) 0.0048(5) 0. -0.0004(4) 0.
#End of TTdata_421255-ICSD