
#(C) 2017 by FIZ Karlsruhe - Leibniz Institute for Information Infrastructure.  All rights reserved.
data_421410-ICSD
_database_code_ICSD 421410
_audit_creation_date 2011-02-01
_chemical_name_systematic 'Barium indide (9/4)'
_chemical_formula_structural 'Ba9 In4'
_chemical_formula_sum 'Ba9 In4'
_chemical_name_structure_type Ga4Sm9
_exptl_crystal_density_diffrn 4.92
_cell_measurement_temperature 293.
_publ_section_title 'Synthesis and crystal structure of barium indide Ba9 In4'
loop_
_citation_id
_citation_journal_full
_citation_year
_citation_journal_volume
_citation_page_first
_citation_page_last
_citation_journal_id_ASTM
primary 'Zeitschrift fuer Naturforschung, B: Chemical Sciences' 2010 65 643 645
ZNBSEN
loop_
_publ_author_name
'Smetana, V.'
'Simon, A.'
_cell_length_a 13.948(2)
_cell_length_b 13.948(2)
_cell_length_c 5.8882(12)
_cell_angle_alpha 90.
_cell_angle_beta 90.
_cell_angle_gamma 90.
_cell_volume 1145.53
_cell_formula_units_Z 2
_symmetry_space_group_name_H-M 'I 4/m'
_symmetry_Int_Tables_number 87
_refine_ls_R_factor_all 0.0369
loop_
_symmetry_equiv_pos_site_id
_symmetry_equiv_pos_as_xyz
1 '-y, x, -z'
2 'y, -x, -z'
3 'x, y, -z'
4 '-x, -y, -z'
5 'y, -x, z'
6 '-y, x, z'
7 '-x, -y, z'
8 'x, y, z'
9 '-y+1/2, x+1/2, -z+1/2'
10 'y+1/2, -x+1/2, -z+1/2'
11 'x+1/2, y+1/2, -z+1/2'
12 '-x+1/2, -y+1/2, -z+1/2'
13 'y+1/2, -x+1/2, z+1/2'
14 '-y+1/2, x+1/2, z+1/2'
15 '-x+1/2, -y+1/2, z+1/2'
16 'x+1/2, y+1/2, z+1/2'
loop_
_atom_type_symbol
_atom_type_oxidation_number
Ba0+ 0
In0+ 0
loop_
_atom_site_label
_atom_site_type_symbol
_atom_site_symmetry_multiplicity
_atom_site_Wyckoff_symbol
_atom_site_fract_x
_atom_site_fract_y
_atom_site_fract_z
_atom_site_B_iso_or_equiv
_atom_site_occupancy
_atom_site_attached_hydrogens
Ba1 Ba0+ 2 b 0. 0. 0.5 0.02144(10) 1 0
Ba2 Ba0+ 8 h 0.10852(2) 0.18309(2) 0. 0.02475(6) 1 0
Ba3 Ba0+ 8 h 0.39171(3) 0.12202(3) 0. 0.03240(8) 1 0
In1 In0+ 8 h 0.26291(3) 0.40044(3) 0. 0.02631(7) 1 0
loop_
_atom_site_aniso_label
_atom_site_aniso_type_symbol
_atom_site_aniso_U_11
_atom_site_aniso_U_22
_atom_site_aniso_U_33
_atom_site_aniso_U_12
_atom_site_aniso_U_13
_atom_site_aniso_U_23
Ba1 Ba0+ 0.02157(14) 0.02157(14) 0.0212(2) 0. 0. 0.
Ba2 Ba0+ 0.02492(13) 0.02195(12) 0.02739(13) 0.00011(10) 0. 0.
Ba3 Ba0+ 0.03302(16) 0.04178(18) 0.02241(13) -0.01224(13) 0. 0.
In1 In0+ 0.02384(15) 0.03266(18) 0.02243(14) -0.00172(12) 0. 0.
#End of TTdata_421410-ICSD