
#(C) 2017 by FIZ Karlsruhe - Leibniz Institute for Information Infrastructure.  All rights reserved.
data_42165-ICSD
_database_code_ICSD 42165
_audit_creation_date 2000-07-15
_audit_update_record 2014-08-01
_chemical_name_systematic 'Zirconium copper silicon arsenide'
_chemical_formula_structural 'Zr Cu Si As'
_chemical_formula_sum 'As1 Cu1 Si1 Zr1'
_chemical_name_structure_type ZrCuSiAs-CuHfSi2
_exptl_crystal_density_diffrn 6.63
_publ_section_title 'Zr Cu Si As: a "filled" Pb F Cl type'
loop_
_citation_id
_citation_journal_full
_citation_year
_citation_journal_volume
_citation_page_first
_citation_page_last
_citation_journal_id_ASTM
primary 'Journal of Solid State Chemistry' 1974 11 161 166 JSSCBI
loop_
_publ_author_name
'Johnson, V.'
'Jeitschko, W.'
_cell_length_a 3.6736(2)
_cell_length_b 3.6736
_cell_length_c 9.5712(9)
_cell_angle_alpha 90.
_cell_angle_beta 90.
_cell_angle_gamma 90.
_cell_volume 129.17
_cell_formula_units_Z 2
_symmetry_space_group_name_H-M 'P 4/n m m Z'
_symmetry_Int_Tables_number 129
_refine_ls_R_factor_all 0.077
loop_
_symmetry_equiv_pos_site_id
_symmetry_equiv_pos_as_xyz
1 'y+1/2, x+1/2, -z'
2 '-y, x+1/2, -z'
3 'y+1/2, -x, -z'
4 '-y, -x, -z'
5 'x+1/2, y+1/2, -z'
6 '-x, y+1/2, -z'
7 'x+1/2, -y, -z'
8 '-x, -y, -z'
9 '-y+1/2, -x+1/2, z'
10 'y, -x+1/2, z'
11 '-y+1/2, x, z'
12 'y, x, z'
13 '-x+1/2, -y+1/2, z'
14 'x, -y+1/2, z'
15 '-x+1/2, y, z'
16 'x, y, z'
loop_
_atom_type_symbol
_atom_type_oxidation_number
Zr0+ 0
Cu0+ 0
Si0+ 0
As0+ 0
loop_
_atom_site_label
_atom_site_type_symbol
_atom_site_symmetry_multiplicity
_atom_site_Wyckoff_symbol
_atom_site_fract_x
_atom_site_fract_y
_atom_site_fract_z
_atom_site_B_iso_or_equiv
_atom_site_occupancy
_atom_site_attached_hydrogens
Zr1 Zr0+ 2 c 0.25 0.25 0.2246(6) 0.6(1) 1. 0
Cu1 Cu0+ 2 b 0.25 0.75 0.5 0.6(1) 1. 0
Si1 Si0+ 2 a 0.25 0.75 0 0.6(1) 1. 0
As1 As0+ 2 c 0.25 0.25 0.6793(8) 0.6(1) 1. 0
#End of TTdata_42165-ICSD