
#(C) 2017 by FIZ Karlsruhe - Leibniz Institute for Information Infrastructure.  All rights reserved.
data_422063-ICSD
_database_code_ICSD 422063
_audit_creation_date 2011-02-01
_chemical_name_systematic 'Cobalt diborate - HP'
_chemical_formula_structural 'Co B2 O4'
_chemical_formula_sum 'B2 Co1 O4'
_chemical_name_structure_type Ni2BO4
_exptl_crystal_density_diffrn 4.34
_cell_measurement_temperature 293.
_publ_section_title

;
Synthesis and crystal structure of the high-pressure cobalt borate HP - Co B2
O4
;
loop_
_citation_id
_citation_journal_full
_citation_year
_citation_journal_volume
_citation_page_first
_citation_page_last
_citation_journal_id_ASTM
primary 'Zeitschrift fuer Naturforschung, B: Chemical Sciences' 2010 65 1311
1317 ZNBSEN
loop_
_publ_author_name
'Neumair, S.C.'
'Kaindl, R.'
'Huppertz, H.'
_cell_length_a 9.3461(19)
_cell_length_b 5.6196(11)
_cell_length_c 4.4332(9)
_cell_angle_alpha 90.
_cell_angle_beta 108.20(3)
_cell_angle_gamma 90.
_cell_volume 221.19
_cell_formula_units_Z 4
_symmetry_space_group_name_H-M 'C 1 2/c 1'
_symmetry_Int_Tables_number 15
_refine_ls_R_factor_all 0.0196
loop_
_symmetry_equiv_pos_site_id
_symmetry_equiv_pos_as_xyz
1 'x, -y, z+1/2'
2 '-x, -y, -z'
3 '-x, y, -z+1/2'
4 'x, y, z'
5 'x+1/2, -y+1/2, z+1/2'
6 '-x+1/2, -y+1/2, -z'
7 '-x+1/2, y+1/2, -z+1/2'
8 'x+1/2, y+1/2, z'
loop_
_atom_type_symbol
_atom_type_oxidation_number
Co2+ 2
O2- -2
B3+ 3
loop_
_atom_site_label
_atom_site_type_symbol
_atom_site_symmetry_multiplicity
_atom_site_Wyckoff_symbol
_atom_site_fract_x
_atom_site_fract_y
_atom_site_fract_z
_atom_site_B_iso_or_equiv
_atom_site_occupancy
_atom_site_attached_hydrogens
Co1 Co2+ 4 e 0.5 0.84194(4) 0.25 0.00560(6) 1 0
O1 O2- 8 f 0.64442(9) 0.84797(14) -0.0222(2) 0.00500(14) 1 0
O2 O2- 8 f 0.36098(9) 0.58719(15) -0.03395(19) 0.00501(14) 1 0
B1 B3+ 8 f 0.31323(13) 0.6073(2) -0.3758(3) 0.00489(19) 1 0
loop_
_atom_site_aniso_label
_atom_site_aniso_type_symbol
_atom_site_aniso_U_11
_atom_site_aniso_U_22
_atom_site_aniso_U_33
_atom_site_aniso_U_12
_atom_site_aniso_U_13
_atom_site_aniso_U_23
Co1 Co2+ 0.00559(10) 0.00604(10) 0.00568(11) 0. 0.00253(7) 0.
O1 O2- 0.0046(3) 0.0051(3) 0.0055(3) 0.0003(2) 0.0017(3) -0.0003(2)
O2 O2- 0.0058(3) 0.0056(3) 0.0036(3) -0.0010(2) 0.0014(3) 0.0001(3)
B1 B3+ 0.0054(4) 0.0048(4) 0.0046(5) 0.0001(4) 0.0016(4) 0.0000(4)
#End of TTdata_422063-ICSD