
data_422150-ICSD
_database_code_ICSD 422150
_audit_creation_date 2011-08-01
_chemical_name_systematic Zinc-catena-polynitridophosphate
_chemical_formula_structural 'Zn2 P N3'
_chemical_formula_sum 'N3 P1 Zn2'
_chemical_name_structure_type Na2SiO3
_exptl_crystal_density_diffrn 5.35
_cell_measurement_temperature 297.
_cell_length_a 9.37847(6)
_cell_length_b 5.47696(4)
_cell_length_c 4.92396(3)
_cell_angle_alpha 90
_cell_angle_beta 90
_cell_angle_gamma 90
_cell_volume 252.92
_cell_formula_units_Z 4
_symmetry_space_group_name_H-M 'C m c 21'
_symmetry_Int_Tables_number 36
_refine_ls_R_factor_all 0.011
loop_
_symmetry_equiv_pos_site_id
_symmetry_equiv_pos_as_xyz
1 'x, -y, z+1/2'
2 '-x, -y, z+1/2'
3 '-x, y, z'
4 'x, y, z'
5 'x+1/2, -y+1/2, z+1/2'
6 '-x+1/2, -y+1/2, z+1/2'
7 '-x+1/2, y+1/2, z'
8 'x+1/2, y+1/2, z'
loop_
_atom_type_symbol
_atom_type_oxidation_number
Zn2+ 2
P5+ 5
N3- -3
loop_
_atom_site_label
_atom_site_type_symbol
_atom_site_symmetry_multiplicity
_atom_site_Wyckoff_symbol
_atom_site_fract_x
_atom_site_fract_y
_atom_site_fract_z
_atom_site_B_iso_or_equiv
_atom_site_occupancy
_atom_site_attached_hydrogens
Zn1 Zn2+ 8 b 0.165050(63) 0.339960(95) 0.9667 0.0088(2) 1 0
P1 P5+ 4 a 0 0.15906(38) 0.4552(10) 0.0050(4) 1 0
N1 N3- 8 b 0.14497(35) 0.30450(62) 0.37731(50) 0.0018(6) 1 0
N2 N3- 4 a 0 0.11913(99) 0.80116(78) 0.0018(6) 1 0
