
data_422273-ICSD
_database_code_ICSD 422273
_audit_creation_date 2011-08-01
_chemical_name_systematic 'Dipotassium strontium cadmium diantimonide'
_chemical_formula_structural 'K2 Sr Cd Sb2'
_chemical_formula_sum 'Cd1 K2 Sb2 Sr1'
_chemical_name_structure_type K2BaCdSb2
_exptl_crystal_density_diffrn 4.37
_cell_measurement_temperature 170.
_cell_length_a 4.9317(12)
_cell_length_b 9.810(2)
_cell_length_c 8.191(2)
_cell_angle_alpha 90.
_cell_angle_beta 90.
_cell_angle_gamma 90.
_cell_volume 396.28
_cell_formula_units_Z 2
_symmetry_space_group_name_H-M 'P m c 21'
_symmetry_Int_Tables_number 26
_refine_ls_R_factor_all 0.0303
loop_
_symmetry_equiv_pos_site_id
_symmetry_equiv_pos_as_xyz
1 'x, -y, z+1/2'
2 '-x, -y, z+1/2'
3 '-x, y, z'
4 'x, y, z'
loop_
_atom_type_symbol
_atom_type_oxidation_number
Sr2+ 2
Cd2+ 2
Sb3- -3
K1+ 1
loop_
_atom_site_label
_atom_site_type_symbol
_atom_site_symmetry_multiplicity
_atom_site_Wyckoff_symbol
_atom_site_fract_x
_atom_site_fract_y
_atom_site_fract_z
_atom_site_B_iso_or_equiv
_atom_site_occupancy
_atom_site_attached_hydrogens
Sr1 Sr2+ 2 a 0. 0.04585(11) -0.00299(12) 0.0156(2) 1 0
Cd1 Cd2+ 2 b 0.5 0.17577(8) 0.65212(10) 0.0177(2) 1 0
Sb1 Sb3- 2 b 0.5 0.10998(7) 0.28312(8) 0.01465(16) 1 0
Sb2 Sb3- 2 a 0. 0.68505(7) 0.24787(9) 0.01678(17) 1 0
K1 K1+ 2 b 0.5 0.4236(3) 0.0256(3) 0.0250(5) 1 0
K2 K1+ 2 a 0. 0.3391(3) 0.3398(3) 0.0218(5) 1 0
loop_
_atom_site_aniso_label
_atom_site_aniso_type_symbol
_atom_site_aniso_U_11
_atom_site_aniso_U_22
_atom_site_aniso_U_33
_atom_site_aniso_U_12
_atom_site_aniso_U_13
_atom_site_aniso_U_23
Sr1 Sr2+ 0.0153(4) 0.0202(5) 0.0114(5) 0. 0. -0.0011(4)
Cd1 Cd2+ 0.0159(3) 0.0205(4) 0.0168(5) 0. 0. -0.0008(3)
Sb1 Sb3- 0.0138(3) 0.0182(3) 0.0120(3) 0. 0. -0.0003(3)
Sb2 Sb3- 0.0149(3) 0.0194(3) 0.0161(4) 0. 0. 0.0002(3)
K1 K1+ 0.0216(12) 0.0315(13) 0.0218(14) 0. 0. 0.0021(12)
K2 K1+ 0.0187(12) 0.0223(13) 0.0244(14) 0. 0. 0.0002(10)
