
data_42252-ICSD
_database_code_ICSD 42252
_audit_creation_date 2000-12-16
_audit_update_record 2005-10-01
_chemical_name_systematic 'Cadmium iodide'
_chemical_formula_structural 'Cd I2'
_chemical_formula_sum 'Cd1 I2'
_chemical_name_structure_type CdI2(hP9,P3m1)
_exptl_crystal_density_diffrn 5.72
_cell_length_a 4.24
_cell_length_b 4.24
_cell_length_c 20.5
_cell_angle_alpha 90.
_cell_angle_beta 90.
_cell_angle_gamma 120.
_cell_volume 319.17
_cell_formula_units_Z 3
_symmetry_space_group_name_H-M 'P 3 m 1'
_symmetry_Int_Tables_number 156
loop_
_symmetry_equiv_pos_site_id
_symmetry_equiv_pos_as_xyz
1 '-x+y, y, z'
2 'x, x-y, z'
3 '-y, -x, z'
4 '-x+y, -x, z'
5 '-y, x-y, z'
6 'x, y, z'
loop_
_atom_type_symbol
_atom_type_oxidation_number
I1- -1
Cd2+ 2
loop_
_atom_site_label
_atom_site_type_symbol
_atom_site_symmetry_multiplicity
_atom_site_Wyckoff_symbol
_atom_site_fract_x
_atom_site_fract_y
_atom_site_fract_z
_atom_site_B_iso_or_equiv
_atom_site_occupancy
_atom_site_attached_hydrogens
I1 I1- 1 a 0 0 0 . 1. 0
I2 I1- 1 b 0.3333 0.6667 0.1667 . 1. 0
I3 I1- 1 c 0.6667 0.3333 0.3333 . 1. 0
I4 I1- 1 a 0 0 0.5 . 1. 0
I5 I1- 1 c 0.6667 0.3333 0.6667 . 1. 0
I6 I1- 1 b 0.3333 0.6667 0.8333 . 1. 0
Cd1 Cd2+ 1 c 0.6667 0.3333 0.0833 . 1. 0
Cd2 Cd2+ 1 b 0.3333 0.6667 0.4167 . 1. 0
Cd3 Cd2+ 1 a 0 0 0.75 . 1. 0
