
#(C) 2017 by FIZ Karlsruhe - Leibniz Institute for Information Infrastructure.  All rights reserved.
data_423040-ICSD
_database_code_ICSD 423040
_audit_creation_date 2012-02-01
_chemical_name_systematic 'Barium germanium bis(phosphate(V))'
_chemical_formula_structural 'Ba Ge (P O4)2'
_chemical_formula_sum 'Ba1 Ge1 O8 P2'
_chemical_name_structure_type NaV(SO4)2
_exptl_crystal_density_diffrn 4.27
_cell_measurement_temperature 293.
_publ_section_title

;
M(II) Ge (P O4)2 (M = Ca, Sr, Ba): crystal structure, phase transition and
thermal expansion
;
loop_
_citation_id
_citation_journal_full
_citation_year
_citation_journal_volume
_citation_page_first
_citation_page_last
_citation_journal_id_ASTM
primary 'Journal of Solid State Chemistry' 2011 184 2629 2634 JSSCBI
loop_
_publ_author_name
'Popa, K.'
'Wallez, G.'
'Bregiroux, D.'
'Loiseau, P.'
_cell_length_a 7.9671(2)
_cell_length_b 5.0757(2)
_cell_length_c 7.7146(2)
_cell_angle_alpha 90.
_cell_angle_beta 94.954(2)
_cell_angle_gamma 90.
_cell_volume 310.8
_cell_formula_units_Z 2
_symmetry_space_group_name_H-M 'C 1 2/m 1'
_symmetry_Int_Tables_number 12
_refine_ls_R_factor_all 0.024
loop_
_symmetry_equiv_pos_site_id
_symmetry_equiv_pos_as_xyz
1 '-x, y, -z'
2 '-x, -y, -z'
3 'x, -y, z'
4 'x, y, z'
5 '-x+1/2, y+1/2, -z'
6 '-x+1/2, -y+1/2, -z'
7 'x+1/2, -y+1/2, z'
8 'x+1/2, y+1/2, z'
loop_
_atom_type_symbol
_atom_type_oxidation_number
Ge4+ 4
Ba2+ 2
P5+ 5
O2- -2
loop_
_atom_site_label
_atom_site_type_symbol
_atom_site_symmetry_multiplicity
_atom_site_Wyckoff_symbol
_atom_site_fract_x
_atom_site_fract_y
_atom_site_fract_z
_atom_site_B_iso_or_equiv
_atom_site_occupancy
_atom_site_attached_hydrogens
Ge1 Ge4+ 2 a 0. 0. 0. 0.0056(6) 1. 0
Ba1 Ba2+ 2 c 0. 0. 0.5 0.0074(3) 1. 0
P1 P5+ 4 i 0.36962(18) 0. 0.19505(18) 0.0073(3) 1. 0
O1 O2- 4 i 0.2314(4) 0. 0.0473(4) 0.0077(9) 1. 0
O2 O2- 4 i 0.3175(4) 0. 0.3828(4) 0.0073(9) 1. 0
O3 O2- 8 j 0.4791(3) 0.2497(4) 0.1740(3) 0.0048(6) 1. 0
loop_
_atom_site_aniso_label
_atom_site_aniso_type_symbol
_atom_site_aniso_U_11
_atom_site_aniso_U_22
_atom_site_aniso_U_33
_atom_site_aniso_U_12
_atom_site_aniso_U_13
_atom_site_aniso_U_23
Ge1 Ge4+ 0.0034(6) 0.0088(6) 0.0045(5) 0. -0.0009(4) 0.
Ba1 Ba2+ 0.0048(3) 0.0144(3) 0.0029(3) 0. -0.0010(2) 0.
#End of TTdata_423040-ICSD