
#(C) 2017 by FIZ Karlsruhe - Leibniz Institute for Information Infrastructure.  All rights reserved.
data_423233-ICSD
_database_code_ICSD 423233
_audit_creation_date 2012-02-01
_chemical_name_systematic 'Cesium tetrachlorido aurate(III)'
_chemical_formula_structural 'Cs Au Cl4'
_chemical_formula_sum 'Au1 Cl4 Cs1'
_chemical_name_structure_type TlAuCl4
_exptl_crystal_density_diffrn 4.21
_cell_measurement_temperature 150.
_publ_section_title 'Caesium tetrachlorido aurate(III), Cs Au Cl4'
loop_
_citation_id
_citation_journal_full
_citation_year
_citation_journal_volume
_citation_page_first
_citation_page_last
_citation_journal_id_ASTM
primary 'Zeitschrift fuer Naturforschung, B: Chemical Sciences' 2011 66 871 872
ZNBSEN
loop_
_publ_author_name
'Kraus, F.'
_cell_length_a 12.923(2)
_cell_length_b 6.1715(9)
_cell_length_c 9.6512(13)
_cell_angle_alpha 90.
_cell_angle_beta 105.049(13)
_cell_angle_gamma 90.
_cell_volume 743.33
_cell_formula_units_Z 4
_symmetry_space_group_name_H-M 'C 1 2/c 1'
_symmetry_Int_Tables_number 15
_refine_ls_R_factor_all 0.0241
loop_
_symmetry_equiv_pos_site_id
_symmetry_equiv_pos_as_xyz
1 'x, -y, z+1/2'
2 '-x, -y, -z'
3 '-x, y, -z+1/2'
4 'x, y, z'
5 'x+1/2, -y+1/2, z+1/2'
6 '-x+1/2, -y+1/2, -z'
7 '-x+1/2, y+1/2, -z+1/2'
8 'x+1/2, y+1/2, z'
loop_
_atom_type_symbol
_atom_type_oxidation_number
Au3+ 3
Cs1+ 1
Cl1- -1
loop_
_atom_site_label
_atom_site_type_symbol
_atom_site_symmetry_multiplicity
_atom_site_Wyckoff_symbol
_atom_site_fract_x
_atom_site_fract_y
_atom_site_fract_z
_atom_site_B_iso_or_equiv
_atom_site_occupancy
_atom_site_attached_hydrogens
Au1 Au3+ 4 c 0.25 0.25 0. 0.01918(16) 1 0
Cs1 Cs1+ 4 e 0.5 0.79723(10) 0.25 0.02961(17) 1 0
Cl1 Cl1- 8 f 0.06954(10) 0.2030(3) -0.06991(14) 0.0279(3) 1 0
Cl2 Cl1- 8 f 0.22612(10) 0.5394(2) 0.13586(14) 0.0329(3) 1 0
loop_
_atom_site_aniso_label
_atom_site_aniso_type_symbol
_atom_site_aniso_U_11
_atom_site_aniso_U_22
_atom_site_aniso_U_33
_atom_site_aniso_U_12
_atom_site_aniso_U_13
_atom_site_aniso_U_23
Au1 Au3+ 0.0250(2) 0.0145(2) 0.0181(2) -0.00136(8) 0.00571(13) 0.00163(8)
Cs1 Cs1+ 0.0385(3) 0.0204(3) 0.0342(3) 0. 0.0169(2) 0.
Cl1 Cl1- 0.0255(7) 0.0280(6) 0.0289(7) -0.0037(5) 0.0048(5) -0.0009(6)
Cl2 Cl1- 0.0403(7) 0.0219(7) 0.0408(7) -0.0055(5) 0.0183(6) -0.0110(5)
#End of TTdata_423233-ICSD