
#(C) 2017 by FIZ Karlsruhe - Leibniz Institute for Information Infrastructure.  All rights reserved.
data_423469-ICSD
_database_code_ICSD 423469
_audit_creation_date 2012-02-01
_chemical_name_systematic 'Boron niobium ruthenium (2/3/5)'
_chemical_formula_structural 'B2 Nb3 Ru5'
_chemical_formula_sum 'B2 Nb3 Ru5'
_chemical_name_structure_type Co5Ti3B2
_exptl_crystal_density_diffrn 10.15
_cell_measurement_temperature 293.
_publ_section_title

;
Nb3 Ru5 B2-The first fully characterized ternary phase in the Nb-Ru-B system:
synthesis, crystal structure and bonding analysis
;
loop_
_citation_id
_citation_journal_full
_citation_year
_citation_journal_volume
_citation_page_first
_citation_page_last
_citation_journal_id_ASTM
primary 'Zeitschrift fuer Anorganische und Allgemeine Chemie (1950) (DE)' 2012
638 49 52 ZAACAB
loop_
_publ_author_name
'Hermus, M.'
'Geier, D.'
'Fokwa, B.P.T.'
_cell_length_a 9.3760(6)
_cell_length_b 9.3760(6)
_cell_length_c 2.9997(3)
_cell_angle_alpha 90.
_cell_angle_beta 90.
_cell_angle_gamma 90.
_cell_volume 263.7
_cell_formula_units_Z 2
_symmetry_space_group_name_H-M 'P 4/m b m'
_symmetry_Int_Tables_number 127
_refine_ls_R_factor_all 0.022
loop_
_symmetry_equiv_pos_site_id
_symmetry_equiv_pos_as_xyz
1 'y+1/2, x+1/2, -z'
2 '-y+1/2, -x+1/2, -z'
3 '-y, x, -z'
4 'y, -x, -z'
5 'x+1/2, -y+1/2, -z'
6 '-x+1/2, y+1/2, -z'
7 'x, y, -z'
8 '-x, -y, -z'
9 '-y+1/2, -x+1/2, z'
10 'y+1/2, x+1/2, z'
11 'y, -x, z'
12 '-y, x, z'
13 '-x+1/2, y+1/2, z'
14 'x+1/2, -y+1/2, z'
15 '-x, -y, z'
16 'x, y, z'
loop_
_atom_type_symbol
_atom_type_oxidation_number
Ru0+ 0
Nb0+ 0
B0+ 0
loop_
_atom_site_label
_atom_site_type_symbol
_atom_site_symmetry_multiplicity
_atom_site_Wyckoff_symbol
_atom_site_fract_x
_atom_site_fract_y
_atom_site_fract_z
_atom_site_B_iso_or_equiv
_atom_site_occupancy
_atom_site_attached_hydrogens
Ru1 Ru0+ 8 j 0.07084(4) 0.21821(4) 0.5 0.00399(11) 1 0
Ru2 Ru0+ 2 c 0. 0.5 0.5 0.00360(14) 1 0
Nb1 Nb0+ 4 g 0.32357(4) 0.17643(4) 0. 0.00482(13) 1 0
Nb2 Nb0+ 2 a 0. 0. 0. 0.00466(16) 1 0
B1 B0+ 4 g 0.1222(6) 0.3778(6) 0. 0.0087(13) 1 0
loop_
_atom_site_aniso_label
_atom_site_aniso_type_symbol
_atom_site_aniso_U_11
_atom_site_aniso_U_22
_atom_site_aniso_U_33
_atom_site_aniso_U_12
_atom_site_aniso_U_13
_atom_site_aniso_U_23
Ru1 Ru0+ 0.00455(16) 0.00317(16) 0.00423(18) -0.00011(10) 0. 0.
Ru2 Ru0+ 0.00341(18) 0.00341(18) 0.0040(3) 0.00074(19) 0. 0.
Nb1 Nb0+ 0.00430(16) 0.00430(16) 0.0059(3) 0.00060(16) 0. 0.
Nb2 Nb0+ 0.0044(2) 0.0044(2) 0.0052(4) 0. 0. 0.
B1 B0+ 0.0096(18) 0.0096(18) 0.007(3) 0.001(2) 0. 0.
#End of TTdata_423469-ICSD