
#(C) 2017 by FIZ Karlsruhe - Leibniz Institute for Information Infrastructure.  All rights reserved.
data_423458-ICSD
_database_code_ICSD 423458
_audit_creation_date 2013-02-01
_chemical_name_systematic 'Pentabarium dicadmium tetraantimony dioxide'
_chemical_formula_structural 'Ba5 Cd2 Sb4 O2'
_chemical_formula_sum 'Ba5 Cd2 O2 Sb4'
_exptl_crystal_density_diffrn 6.2
_cell_measurement_temperature 200.
_publ_section_title
'Ba5 Cd2 Sb4 O2 - a new antimonide oxide with a complex structure'
loop_
_citation_id
_citation_journal_full
_citation_year
_citation_journal_volume
_citation_page_first
_citation_page_last
_citation_journal_id_ASTM
primary Crystals 2011 2011 206 214 CRYSBC
loop_
_publ_author_name
'Darone, G.M.'
'Bobev, S.'
_cell_length_a 17.247(7)
_cell_length_b 4.9279(18)
_cell_length_c 12.240(5)
_cell_angle_alpha 90.
_cell_angle_beta 132.558(4)
_cell_angle_gamma 90.
_cell_volume 766.27
_cell_formula_units_Z 2
_symmetry_space_group_name_H-M 'C 1 2/m 1'
_symmetry_Int_Tables_number 12
_refine_ls_R_factor_all 0.0241
loop_
_symmetry_equiv_pos_site_id
_symmetry_equiv_pos_as_xyz
1 '-x, y, -z'
2 '-x, -y, -z'
3 'x, -y, z'
4 'x, y, z'
5 '-x+1/2, y+1/2, -z'
6 '-x+1/2, -y+1/2, -z'
7 'x+1/2, -y+1/2, z'
8 'x+1/2, y+1/2, z'
loop_
_atom_type_symbol
_atom_type_oxidation_number
Ba0+ 0
Cd0+ 0
Sb0+ 0
O0+ 0
loop_
_atom_site_label
_atom_site_type_symbol
_atom_site_symmetry_multiplicity
_atom_site_Wyckoff_symbol
_atom_site_fract_x
_atom_site_fract_y
_atom_site_fract_z
_atom_site_B_iso_or_equiv
_atom_site_occupancy
_atom_site_attached_hydrogens
Ba1 Ba0+ 4 i 0.02659(3) 0. 0.70308(5) 0.00999(12) 1 0
Ba2 Ba0+ 4 i 0.29970(3) 0. 0.64996(5) 0.01448(12) 1 0
Ba3 Ba0+ 2 a 0. 0. 0. 0.01821(17) 1 0
Cd1 Cd0+ 4 i 0.26114(4) 0. 0.12247(6) 0.01136(14) 1 0
Sb1 Sb0+ 4 i 0.36548(3) 0. 0.01038(5) 0.00958(12) 1 0
Sb2 Sb0+ 4 i 0.39272(4) 0. 0.43332(5) 0.00975(13) 1 0
O1 O0+ 4 i 0.1297(4) 0. 0.3132(7) 0.0182(12) 1 0
loop_
_atom_site_aniso_label
_atom_site_aniso_type_symbol
_atom_site_aniso_U_11
_atom_site_aniso_U_22
_atom_site_aniso_U_33
_atom_site_aniso_U_12
_atom_site_aniso_U_13
_atom_site_aniso_U_23
Ba1 Ba0+ 0.0115(2) 0.0084(2) 0.0092(2) 0. 0.00664(17) 0.
Ba2 Ba0+ 0.0148(2) 0.0133(2) 0.0174(2) 0. 0.0117(2) 0.
Ba3 Ba0+ 0.0220(3) 0.0104(3) 0.0356(4) 0. 0.0248(3) 0.
Cd1 Cd0+ 0.0105(2) 0.0120(3) 0.0105(3) 0. 0.0067(2) 0.
Sb1 Sb0+ 0.0125(2) 0.0073(3) 0.0110(2) 0. 0.0087(2) 0.
Sb2 Sb0+ 0.0094(2) 0.0103(3) 0.0087(2) 0. 0.00573(19) 0.
O1 O0+ 0.020(3) 0.011(3) 0.036(3) 0. 0.024(3) 0.
#End of TTdata_423458-ICSD