
data_424067-ICSD
_database_code_ICSD 424067
_audit_creation_date 2013-02-01
_chemical_name_systematic 'Tris(oxovanadium(IV)) bis(arsenate(III)) - beta'
_chemical_formula_structural '(V O)3 (As O3)2'
_chemical_formula_sum 'As2 O9 V3'
_exptl_crystal_density_diffrn 4.02
_cell_measurement_temperature 293.
_cell_length_a 8.946(2)
_cell_length_b 8.946(2)
_cell_length_c 4.6091(16)
_cell_angle_alpha 90.
_cell_angle_beta 90.
_cell_angle_gamma 90.
_cell_volume 368.87
_cell_formula_units_Z 2
_symmetry_space_group_name_H-M 'P 4 b m'
_symmetry_Int_Tables_number 100
_refine_ls_R_factor_all 0.0112
loop_
_symmetry_equiv_pos_site_id
_symmetry_equiv_pos_as_xyz
1 '-y+1/2, -x+1/2, z'
2 'y+1/2, x+1/2, z'
3 'y, -x, z'
4 '-y, x, z'
5 '-x+1/2, y+1/2, z'
6 'x+1/2, -y+1/2, z'
7 '-x, -y, z'
8 'x, y, z'
loop_
_atom_type_symbol
_atom_type_oxidation_number
V4+ 4
As3+ 3
O2- -2
loop_
_atom_site_label
_atom_site_type_symbol
_atom_site_symmetry_multiplicity
_atom_site_Wyckoff_symbol
_atom_site_fract_x
_atom_site_fract_y
_atom_site_fract_z
_atom_site_B_iso_or_equiv
_atom_site_occupancy
_atom_site_attached_hydrogens
V1 V4+ 4 c 0.61241(4) 0.88759(4) 0.35745(11) 0.00757(14) 1 0
V2 V4+ 2 a 1. 1. 0.43037(16) 0.00776(18) 1 0
As1 As3+ 4 c 0.79796(2) 0.70204(2) 0.70907(11) 0.00824(9) 1 0
O1 O2- 8 d 0.81597(18) 0.88151(17) 0.5305(4) 0.0099(4) 1 0
O2 O2- 4 c 0.89948(17) 0.60052(17) 0.4389(5) 0.0106(5) 1 0
O3 O2- 2 a 1. 1. 0.0842(7) 0.0166(8) 1 0
O4 O2- 4 c 0.6246(2) 0.8754(2) 0.0123(5) 0.0161(6) 1 0
loop_
_atom_site_aniso_label
_atom_site_aniso_type_symbol
_atom_site_aniso_U_11
_atom_site_aniso_U_22
_atom_site_aniso_U_33
_atom_site_aniso_U_12
_atom_site_aniso_U_13
_atom_site_aniso_U_23
V1 V4+ 0.00581(17) 0.00581(17) 0.0111(3) -0.0003(2) 0.00088(17) -0.00088(17)
V2 V4+ 0.0046(2) 0.0046(2) 0.0140(4) 0. 0. 0.
As1 As3+ 0.00663(11) 0.00663(11) 0.01144(15) 0.00091(12) -0.00008(11)
0.00008(11)
O1 O2- 0.0050(8) 0.0072(8) 0.0175(9) -0.0010(6) -0.0005(7) 0.0011(6)
O2 O2- 0.0070(7) 0.0070(7) 0.0178(13) -0.0005(8) 0.0026(7) -0.0026(7)
O3 O2- 0.0159(11) 0.0159(11) 0.0182(18) 0. 0. 0.
O4 O2- 0.0164(9) 0.0164(9) 0.0154(15) 0.0029(11) 0.0028(7) -0.0028(7)
