
data_42402-ICSD
_database_code_ICSD 42402
_audit_creation_date 2000-07-15
_chemical_name_systematic 'Iron phosphide (2/1)'
_chemical_formula_structural 'Fe2 P'
_chemical_formula_sum 'Fe2 P1'
_chemical_name_structure_type ZrNiAl-Fe2P
_chemical_name_mineral Barringerite
_exptl_crystal_density_diffrn 6.9
_cell_length_a 5.868(1)
_cell_length_b 5.868
_cell_length_c 3.456
_cell_angle_alpha 90.
_cell_angle_beta 90.
_cell_angle_gamma 120.
_cell_volume 103.06
_cell_formula_units_Z 3
_symmetry_space_group_name_H-M 'P -6 2 m'
_symmetry_Int_Tables_number 189
loop_
_symmetry_equiv_pos_site_id
_symmetry_equiv_pos_as_xyz
1 '-x, -x+y, -z'
2 'x-y, -y, -z'
3 'y, x, -z'
4 '-x, -x+y, z'
5 'x-y, -y, z'
6 'y, x, z'
7 '-x+y, -x, -z'
8 '-y, x-y, -z'
9 'x, y, -z'
10 '-x+y, -x, z'
11 '-y, x-y, z'
12 'x, y, z'
loop_
_atom_type_symbol
_atom_type_oxidation_number
Fe1+ 1.5
P3- -3
loop_
_atom_site_label
_atom_site_type_symbol
_atom_site_symmetry_multiplicity
_atom_site_Wyckoff_symbol
_atom_site_fract_x
_atom_site_fract_y
_atom_site_fract_z
_atom_site_B_iso_or_equiv
_atom_site_occupancy
_atom_site_attached_hydrogens
Fe1 Fe1+ 3 f 0.256 0 0 . 1. 0
Fe2 Fe1+ 3 g 0.594 0 0.5 . 1. 0
P1 P3- 2 c 0.3333 0.6667 0 . 1. 0
P2 P3- 1 b 0 0 0.5 . 1. 0
