
data_42542-ICSD
_database_code_ICSD 42542
_audit_creation_date 2000-07-15
_audit_update_record 2007-08-01
_chemical_name_systematic 'Iron carbide (3/1)'
_chemical_formula_structural 'Fe3 C'
_chemical_formula_sum 'C1 Fe3'
_chemical_name_structure_type Fe3N1+x
_chemical_name_mineral 'Bainite (upper)'
_exptl_crystal_density_diffrn 6.96
_cell_length_a 4.767
_cell_length_b 4.767
_cell_length_c 4.354
_cell_angle_alpha 90.
_cell_angle_beta 90.
_cell_angle_gamma 120.
_cell_volume 85.69
_cell_formula_units_Z 2
_symmetry_space_group_name_H-M 'P 63 2 2'
_symmetry_Int_Tables_number 182
loop_
_symmetry_equiv_pos_site_id
_symmetry_equiv_pos_as_xyz
1 'x, x-y, -z+1/2'
2 '-x+y, y, -z+1/2'
3 '-y, -x, -z+1/2'
4 'x-y, x, z+1/2'
5 'y, -x+y, z+1/2'
6 '-x, -y, z+1/2'
7 '-x, -x+y, -z'
8 'x-y, -y, -z'
9 'y, x, -z'
10 '-x+y, -x, z'
11 '-y, x-y, z'
12 'x, y, z'
loop_
_atom_type_symbol
_atom_type_oxidation_number
C0+ 0
Fe0+ 0
loop_
_atom_site_label
_atom_site_type_symbol
_atom_site_symmetry_multiplicity
_atom_site_Wyckoff_symbol
_atom_site_fract_x
_atom_site_fract_y
_atom_site_fract_z
_atom_site_B_iso_or_equiv
_atom_site_occupancy
_atom_site_attached_hydrogens
C1 C0+ 2 d 0.3333 0.6667 0.75 . 1. 0
Fe1 Fe0+ 6 g 0.333 0 0 . 1. 0
