
#(C) 2017 by FIZ Karlsruhe - Leibniz Institute for Information Infrastructure.  All rights reserved.
data_42540-ICSD
_database_code_ICSD 42540
_audit_creation_date 2000-07-15
_chemical_name_systematic 'Cobalt selenide (1/2)'
_chemical_formula_structural 'Co Se2'
_chemical_formula_sum 'Co1 Se2'
_chemical_name_structure_type Marcasite-FeS2(oP6)
_chemical_name_mineral Hastite
_exptl_crystal_density_diffrn 7.23
_publ_section_title

;
Vier neue natuerliche Kobaltselenide vom Steinbruch Trogtal bei Laufenthal im
Harz
;
loop_
_citation_id
_citation_journal_full
_citation_year
_citation_journal_volume
_citation_page_first
_citation_page_last
_citation_journal_id_ASTM
primary 'Neues Jahrbuch fuer Mineralogie. Monatshefte (Band=Jahr) (1950-)' 1955
1955 133 142 NJMMAW
loop_
_publ_author_name
'Ramdohr, P.'
'Schmitt, M.'
_cell_length_a 4.84
_cell_length_b 5.72
_cell_length_c 3.6
_cell_angle_alpha 90.
_cell_angle_beta 90.
_cell_angle_gamma 90.
_cell_volume 99.67
_cell_formula_units_Z 2
_symmetry_space_group_name_H-M 'P n n m'
_symmetry_Int_Tables_number 58
loop_
_symmetry_equiv_pos_site_id
_symmetry_equiv_pos_as_xyz
1 'x+1/2, -y+1/2, z+1/2'
2 '-x+1/2, y+1/2, z+1/2'
3 'x, y, -z'
4 '-x, -y, -z'
5 '-x+1/2, y+1/2, -z+1/2'
6 'x+1/2, -y+1/2, -z+1/2'
7 '-x, -y, z'
8 'x, y, z'
loop_
_atom_type_symbol
_atom_type_oxidation_number
Co2+ 2
Se1- -1
loop_
_atom_site_label
_atom_site_type_symbol
_atom_site_symmetry_multiplicity
_atom_site_Wyckoff_symbol
_atom_site_fract_x
_atom_site_fract_y
_atom_site_fract_z
_atom_site_B_iso_or_equiv
_atom_site_occupancy
_atom_site_attached_hydrogens
Co1 Co2+ 2 a 0 0 0 . 1. 0
Se1 Se1- 4 g 0.21 0.37 0 . 1. 0
#End of TTdata_42540-ICSD