
#(C) 2017 by FIZ Karlsruhe - Leibniz Institute for Information Infrastructure.  All rights reserved.
data_42573-ICSD
_database_code_ICSD 42573
_audit_creation_date 2000-07-15
_audit_update_record 2007-08-01
_chemical_name_systematic 'Iridium arsenide (1/2)'
_chemical_formula_structural 'Ir As2'
_chemical_formula_sum 'As2 Ir1'
_chemical_name_structure_type FeAsS-CoSb2
_chemical_name_mineral Iridarsenite
_exptl_crystal_density_diffrn 10.95
_publ_section_title
'On the properties of binary compounds with the Co Sb2 type crystal structure'
loop_
_citation_id
_citation_journal_full
_citation_year
_citation_journal_volume
_citation_page_first
_citation_page_last
_citation_journal_id_ASTM
primary 'Acta Chemica Scandinavica (1-27,1973-42,1988)' 1971 25 411 422 ACSAA4
loop_
_publ_author_name
'Kjekshus, A.'
_cell_length_a 6.0549(5)
_cell_length_b 6.0717(4)
_cell_length_c 6.1587(4)
_cell_angle_alpha 90.
_cell_angle_beta 113.20(6)
_cell_angle_gamma 90.
_cell_volume 208.11
_cell_formula_units_Z 4
_symmetry_space_group_name_H-M 'P 1 21/c 1'
_symmetry_Int_Tables_number 14
_refine_ls_R_factor_all 0.085
loop_
_symmetry_equiv_pos_site_id
_symmetry_equiv_pos_as_xyz
1 'x, -y+1/2, z+1/2'
2 '-x, -y, -z'
3 '-x, y+1/2, -z+1/2'
4 'x, y, z'
loop_
_atom_type_symbol
_atom_type_oxidation_number
Ir2+ 2
As1- -1
loop_
_atom_site_label
_atom_site_type_symbol
_atom_site_symmetry_multiplicity
_atom_site_Wyckoff_symbol
_atom_site_fract_x
_atom_site_fract_y
_atom_site_fract_z
_atom_site_B_iso_or_equiv
_atom_site_occupancy
_atom_site_attached_hydrogens
Ir1 Ir2+ 4 e 0.282 0 0.293 . 1. 0
As1 As1- 4 e 0.388 0.366 0.182 . 1. 0
As2 As1- 4 e 0.151 0.625 0.37 . 1. 0
#End of TTdata_42573-ICSD