
#(C) 2017 by FIZ Karlsruhe - Leibniz Institute for Information Infrastructure.  All rights reserved.
data_425741-ICSD
_database_code_ICSD 425741
_audit_creation_date 2015-02-01
_chemical_name_systematic 'Lead bismuth oxide chloride (1/4/6/2)'
_chemical_formula_structural 'Pb Bi4 O6 Cl2'
_chemical_formula_sum 'Bi4 Cl2 O6 Pb1'
_exptl_crystal_density_diffrn 8.3
_cell_measurement_temperature 293.
_publ_section_title

;
New [Pb Bi2 O4] [Bi2 O2] Cl2 and [Pbn Bi10-n O13] [Bi2 O2]n Cl4+n series by
association of sizable subunits. Relationship with Arppe's compound Bi24 O31
Cl10 and luminescence properties
;
loop_
_citation_id
_citation_journal_full
_citation_year
_citation_journal_volume
_citation_page_first
_citation_page_last
_citation_journal_id_ASTM
primary 'Inorganic Chemistry' 2013 52 8427 8435 INOCAJ
loop_
_publ_author_name
'Aliev, A.'
'Olchowka, J.'
'Colmont, M.'
'Capoen, E.'
'Wickleder, C.'
'Mentre, O.'
_cell_length_a 3.9488(4)
_cell_length_b 3.9488(4)
_cell_length_c 31.038(7)
_cell_angle_alpha 90
_cell_angle_beta 90
_cell_angle_gamma 90
_cell_volume 483.97
_cell_formula_units_Z 2
_symmetry_space_group_name_H-M 'I 4/m m m'
_symmetry_Int_Tables_number 139
_refine_ls_R_factor_all 0.059
loop_
_symmetry_equiv_pos_site_id
_symmetry_equiv_pos_as_xyz
1 'y, x, -z'
2 '-y, -x, -z'
3 '-y, x, -z'
4 'y, -x, -z'
5 '-x, y, -z'
6 'x, -y, -z'
7 'x, y, -z'
8 '-x, -y, -z'
9 '-y, -x, z'
10 'y, x, z'
11 'y, -x, z'
12 '-y, x, z'
13 'x, -y, z'
14 '-x, y, z'
15 '-x, -y, z'
16 'x, y, z'
17 'y+1/2, x+1/2, -z+1/2'
18 '-y+1/2, -x+1/2, -z+1/2'
19 '-y+1/2, x+1/2, -z+1/2'
20 'y+1/2, -x+1/2, -z+1/2'
21 '-x+1/2, y+1/2, -z+1/2'
22 'x+1/2, -y+1/2, -z+1/2'
23 'x+1/2, y+1/2, -z+1/2'
24 '-x+1/2, -y+1/2, -z+1/2'
25 '-y+1/2, -x+1/2, z+1/2'
26 'y+1/2, x+1/2, z+1/2'
27 'y+1/2, -x+1/2, z+1/2'
28 '-y+1/2, x+1/2, z+1/2'
29 'x+1/2, -y+1/2, z+1/2'
30 '-x+1/2, y+1/2, z+1/2'
31 '-x+1/2, -y+1/2, z+1/2'
32 'x+1/2, y+1/2, z+1/2'
loop_
_atom_type_symbol
_atom_type_oxidation_number
Bi3+ 3
Pb2+ 2
Cl1- -1
O2- -2
loop_
_atom_site_label
_atom_site_type_symbol
_atom_site_symmetry_multiplicity
_atom_site_Wyckoff_symbol
_atom_site_fract_x
_atom_site_fract_y
_atom_site_fract_z
_atom_site_B_iso_or_equiv
_atom_site_occupancy
_atom_site_attached_hydrogens
Bi1 Bi3+ 4 e 0.5 0.5 0.21050(8) 0.0124(7) 1 0
Bi2 Bi3+ 4 e 0 0 0.41291(10) 0.0365(9) 1 0
Pb1 Pb2+ 2 a 0 0 0 0.0362(13) 1 0
Cl1 Cl1- 4 e 0 0 0.1519(6) 0.025(4) 1 0
O1 O2- 4 d 0.5 1 0.25 0.014(9) 1 0
O2 O2- 8 g 0 0.5 0.4494(15) 0.066(15) 1 0
loop_
_atom_site_aniso_label
_atom_site_aniso_type_symbol
_atom_site_aniso_U_11
_atom_site_aniso_U_22
_atom_site_aniso_U_33
_atom_site_aniso_U_12
_atom_site_aniso_U_13
_atom_site_aniso_U_23
Bi1 Bi3+ 0.0079(10) 0.0079(10) 0.0214(14) 0 0 0
Bi2 Bi3+ 0.0431(15) 0.0431(15) 0.0232(16) 0 0 0
Pb1 Pb2+ 0.0258(17) 0.0258(17) 0.057(3) 0 0 0
Cl1 Cl1- 0.024(6) 0.024(6) 0.027(8) 0 0 0
#End of TTdata_425741-ICSD