
data_42596-ICSD
_database_code_ICSD 42596
_audit_creation_date 2000-07-15
_audit_update_record 2007-08-01
_chemical_name_systematic 'Nickel selenide'
_chemical_formula_structural 'Ni Se'
_chemical_formula_sum 'Ni1 Se1'
_chemical_name_structure_type NiS
_chemical_name_mineral Maekinenite
_exptl_crystal_density_diffrn 7.12
_cell_length_a 10.007
_cell_length_b 10.007
_cell_length_c 3.333
_cell_angle_alpha 90.
_cell_angle_beta 90.
_cell_angle_gamma 120.
_cell_volume 289.05
_cell_formula_units_Z 9
_symmetry_space_group_name_H-M 'R 3 m H'
_symmetry_Int_Tables_number 160
loop_
_symmetry_equiv_pos_site_id
_symmetry_equiv_pos_as_xyz
1 '-x+y, y, z'
2 'x, x-y, z'
3 '-y, -x, z'
4 '-x+y, -x, z'
5 '-y, x-y, z'
6 'x, y, z'
7 '-x+y+2/3, y+1/3, z+1/3'
8 'x+2/3, x-y+1/3, z+1/3'
9 '-y+2/3, -x+1/3, z+1/3'
10 '-x+y+2/3, -x+1/3, z+1/3'
11 '-y+2/3, x-y+1/3, z+1/3'
12 'x+2/3, y+1/3, z+1/3'
13 '-x+y+1/3, y+2/3, z+2/3'
14 'x+1/3, x-y+2/3, z+2/3'
15 '-y+1/3, -x+2/3, z+2/3'
16 '-x+y+1/3, -x+2/3, z+2/3'
17 '-y+1/3, x-y+2/3, z+2/3'
18 'x+1/3, y+2/3, z+2/3'
loop_
_atom_type_symbol
_atom_type_oxidation_number
Ni2+ 2
Se2- -2
loop_
_atom_site_label
_atom_site_type_symbol
_atom_site_symmetry_multiplicity
_atom_site_Wyckoff_symbol
_atom_site_fract_x
_atom_site_fract_y
_atom_site_fract_z
_atom_site_B_iso_or_equiv
_atom_site_occupancy
_atom_site_attached_hydrogens
Ni1 Ni2+ 9 b -.088 0.088 0.088 . 1. 0
Se1 Se2- 9 b 0.112 -.112 0.616 . 1. 0
