
#(C) 2017 by FIZ Karlsruhe - Leibniz Institute for Information Infrastructure.  All rights reserved.
data_42616-ICSD
_database_code_ICSD 42616
_audit_creation_date 2002-04-01
_audit_update_record 2007-08-01
_chemical_name_systematic 'Rhodium arsenide (1/2)'
_chemical_formula_structural 'Rh As2'
_chemical_formula_sum 'As2 Rh1'
_chemical_name_structure_type FeAsS-CoSb2
_exptl_crystal_density_diffrn 8.09
_publ_section_title
'On the properties of binary compounds with the Co Sb2 type crystal structure'
loop_
_citation_id
_citation_journal_full
_citation_year
_citation_journal_volume
_citation_page_first
_citation_page_last
_citation_journal_id_ASTM
primary 'Acta Chemica Scandinavica (1-27,1973-42,1988)' 1971 25 411 422 ACSAA4
loop_
_publ_author_name
'Kjekshus, A.'
_cell_length_a 6.0629(4)
_cell_length_b 6.0816(5)
_cell_length_c 6.1498(4)
_cell_angle_alpha 90.
_cell_angle_beta 114.707(6)
_cell_angle_gamma 90.
_cell_volume 206.
_cell_formula_units_Z 4
_symmetry_space_group_name_H-M 'P 1 21/c 1'
_symmetry_Int_Tables_number 14
_refine_ls_R_factor_all 0.085
loop_
_symmetry_equiv_pos_site_id
_symmetry_equiv_pos_as_xyz
1 'x, -y+1/2, z+1/2'
2 '-x, -y, -z'
3 '-x, y+1/2, -z+1/2'
4 'x, y, z'
loop_
_atom_type_symbol
_atom_type_oxidation_number
Rh0+ 0
As0+ 0
loop_
_atom_site_label
_atom_site_type_symbol
_atom_site_symmetry_multiplicity
_atom_site_Wyckoff_symbol
_atom_site_fract_x
_atom_site_fract_y
_atom_site_fract_z
_atom_site_B_iso_or_equiv
_atom_site_occupancy
_atom_site_attached_hydrogens
Rh1 Rh0+ 4 e 0.280(2) 0.000(5) 0.291(3) . 1. 0
As1 As0+ 4 e 0.339(3) 0.367(6) 0.182(3) . 1. 0
As2 As0+ 4 e 0.153(3) 0.626(5) 0.372(4) . 1. 0
#End of TTdata_42616-ICSD