
data_426482-ICSD
_database_code_ICSD 426482
_audit_creation_date 2014-02-01
_chemical_name_systematic 'Lanthanum rhodium germanide (1/6/4)'
_chemical_formula_structural 'La Rh6 Ge4'
_chemical_formula_sum 'Ge4 La1 Rh6'
_exptl_crystal_density_diffrn 10.01
_cell_measurement_temperature 293.
_cell_length_a 7.158
_cell_length_b 7.158
_cell_length_c 3.8733
_cell_angle_alpha 90
_cell_angle_beta 90
_cell_angle_gamma 120
_cell_volume 171.87
_cell_formula_units_Z 1
_symmetry_space_group_name_H-M 'P -6 m 2'
_symmetry_Int_Tables_number 187
_refine_ls_R_factor_all 0.0179
loop_
_symmetry_equiv_pos_site_id
_symmetry_equiv_pos_as_xyz
1 'x, x-y, -z'
2 '-x+y, y, -z'
3 '-y, -x, -z'
4 'x, x-y, z'
5 '-x+y, y, z'
6 '-y, -x, z'
7 '-x+y, -x, -z'
8 '-y, x-y, -z'
9 'x, y, -z'
10 '-x+y, -x, z'
11 '-y, x-y, z'
12 'x, y, z'
loop_
_atom_type_symbol
_atom_type_oxidation_number
La0+ 0
Rh0+ 0
Ge0+ 0
loop_
_atom_site_label
_atom_site_type_symbol
_atom_site_symmetry_multiplicity
_atom_site_Wyckoff_symbol
_atom_site_fract_x
_atom_site_fract_y
_atom_site_fract_z
_atom_site_B_iso_or_equiv
_atom_site_occupancy
_atom_site_attached_hydrogens
La1 La0+ 1 a 1 1 1 0.01148(17) 1 0
Rh1 Rh0+ 3 j 0.46688(6) 0.53312(6) 1 0.0103(2) 1 0
Rh2 Rh0+ 3 k 0.79856(7) 0.20144(7) 0.5 0.01018(19) 1 0
Ge1 Ge0+ 1 e 0.666667 0.333333 1 0.0103(4) 1 0
Ge2 Ge0+ 3 k 0.19942(9) 0.80058(9) 0.5 0.0107(3) 1 0
loop_
_atom_site_aniso_label
_atom_site_aniso_type_symbol
_atom_site_aniso_U_11
_atom_site_aniso_U_22
_atom_site_aniso_U_33
_atom_site_aniso_U_12
_atom_site_aniso_U_13
_atom_site_aniso_U_23
La1 La0+ 0.0137(2) 0.0137(2) 0.0071(3) 0.00684(11) 0 0
Rh1 Rh0+ 0.0121(2) 0.0121(2) 0.0074(3) 0.0065(2) 0 0
Rh2 Rh0+ 0.0111(2) 0.0111(2) 0.0082(3) 0.0055(2) 0 0
Ge1 Ge0+ 0.0118(5) 0.0118(5) 0.0073(8) 0.0059(2) 0 0
Ge2 Ge0+ 0.0118(3) 0.0118(3) 0.0077(5) 0.0054(3) 0 0
