
data_426425-ICSD
_database_code_ICSD 426425
_audit_creation_date 2014-08-01
_chemical_name_systematic 'Scandium aluminium oxide carbide'
_chemical_formula_structural 'Sc Al O C'
_chemical_formula_sum 'C1 Al1 O1 Sc1'
_chemical_name_structure_type SiC(4H)
_exptl_crystal_density_diffrn 3.57
_cell_measurement_temperature 293.
_cell_length_a 3.24793(3)
_cell_length_b 3.24793(3)
_cell_length_c 10.17391(11)
_cell_angle_alpha 90.
_cell_angle_beta 90.
_cell_angle_gamma 120.
_cell_volume 92.94
_cell_formula_units_Z 2
_symmetry_space_group_name_H-M 'P 63 m c'
_symmetry_Int_Tables_number 186
_refine_ls_R_factor_all 0.0103
loop_
_symmetry_equiv_pos_site_id
_symmetry_equiv_pos_as_xyz
1 '-x, -x+y, z+1/2'
2 'x-y, -y, z+1/2'
3 'y, x, z+1/2'
4 'x-y, x, z+1/2'
5 'y, -x+y, z+1/2'
6 '-x, -y, z+1/2'
7 'x, x-y, z'
8 '-x+y, y, z'
9 '-y, -x, z'
10 '-x+y, -x, z'
11 '-y, x-y, z'
12 'x, y, z'
loop_
_atom_type_symbol
_atom_type_oxidation_number
Sc3+ 3
Al3+ 3
O2- -2
C4- -4
loop_
_atom_site_label
_atom_site_type_symbol
_atom_site_symmetry_multiplicity
_atom_site_Wyckoff_symbol
_atom_site_fract_x
_atom_site_fract_y
_atom_site_fract_z
_atom_site_B_iso_or_equiv
_atom_site_occupancy
_atom_site_attached_hydrogens
Sc1 Sc3+ 2 b 0.6667 0.3333 0.6966 0.00420(2) 1 0
Al1 Al3+ 2 a 1. 0. 0.97938(3) 0.00389(3) 1 0
O1 O2- 2 a 1. 0. 0.80263(4) 0.00507(5) 1 0
C1 C4- 2 b 0.3333 0.6667 0.55807(5) 0.00453(6) 1 0
loop_
_atom_site_aniso_label
_atom_site_aniso_type_symbol
_atom_site_aniso_U_11
_atom_site_aniso_U_22
_atom_site_aniso_U_33
_atom_site_aniso_U_12
_atom_site_aniso_U_13
_atom_site_aniso_U_23
Sc1 Sc3+ 0.00376(2) 0.00376(2) 0.00509(2) 0.00188(1) 0. 0.
Al1 Al3+ 0.00416(4) 0.00416(4) 0.00334(5) 0.00208(2) 0. 0.
O1 O2- 0.00576(8) 0.00576(8) 0.00369(8) 0.00288(4) 0. 0.
C1 C4- 0.00425(9) 0.00425(9) 0.00509(12) 0.00212(5) 0. 0.
