
data_42722-ICSD
_database_code_ICSD 42722
_audit_creation_date 2000-07-15
_chemical_name_systematic 'Iron antimonide (1/2)'
_chemical_formula_structural 'Fe Sb2'
_chemical_formula_sum 'Fe1 Sb2'
_chemical_name_structure_type Marcasite-FeS2(oP6)
_chemical_name_mineral Seinaejokite
_exptl_crystal_density_diffrn 8.15
_cell_length_a 5.8328(5)
_cell_length_b 6.5376(5)
_cell_length_c 3.1973(3)
_cell_angle_alpha 90.
_cell_angle_beta 90.
_cell_angle_gamma 90.
_cell_volume 121.92
_cell_formula_units_Z 2
_symmetry_space_group_name_H-M 'P n n 2'
_symmetry_Int_Tables_number 34
_refine_ls_R_factor_all 0.076
loop_
_symmetry_equiv_pos_site_id
_symmetry_equiv_pos_as_xyz
1 'x+1/2, -y+1/2, z+1/2'
2 '-x+1/2, y+1/2, z+1/2'
3 '-x, -y, z'
4 'x, y, z'
loop_
_atom_type_symbol
_atom_type_oxidation_number
Fe0+ 0
Sb0+ 0
loop_
_atom_site_label
_atom_site_type_symbol
_atom_site_symmetry_multiplicity
_atom_site_Wyckoff_symbol
_atom_site_fract_x
_atom_site_fract_y
_atom_site_fract_z
_atom_site_B_iso_or_equiv
_atom_site_occupancy
_atom_site_attached_hydrogens
Fe1 Fe0+ 2 a 0 0 0 . 1. 0
Sb1 Sb0+ 4 c 0.1881(1) 0.3565(1) 0.0097(5) . 1. 0
loop_
_atom_site_aniso_label
_atom_site_aniso_type_symbol
_atom_site_aniso_beta_11
_atom_site_aniso_beta_22
_atom_site_aniso_beta_33
_atom_site_aniso_beta_12
_atom_site_aniso_beta_13
_atom_site_aniso_beta_23
Fe1 Fe0+ 0.0018(3) 0.0008(2) 0.0052(26) -.0002(2) 0 0
Sb1 Sb0+ 0.0020(1) 0.0018(1) 0.0049(8) -.0003(1) -.0006(8) 0.0003(9)
