
#(C) 2017 by FIZ Karlsruhe - Leibniz Institute for Information Infrastructure.  All rights reserved.
data_427424-ICSD
_database_code_ICSD 427424
_audit_creation_date 2015-02-01
_chemical_name_systematic 'Tantalum ruthenium boride (3/5/2)'
_chemical_formula_structural 'Ta3 Ru5 B2'
_chemical_formula_sum 'B2 Ru5 Ta3'
_chemical_name_structure_type Co5Ti3B2
_exptl_crystal_density_diffrn 13.49
_cell_measurement_temperature 293.
_publ_section_title

;
Experimental and first-principles studies of the ternary borides Ta3 Ru5 B2
and M3-x Ru5+x B2 (M = Zr, Hf)
;
loop_
_citation_id
_citation_journal_full
_citation_year
_citation_journal_volume
_citation_page_first
_citation_page_last
_citation_journal_id_ASTM
primary 'European Journal of Inorganic Chemistry  (online)' 2014 2014 3085 3094
EJICFO
loop_
_publ_author_name
'Hermus, Martin'
'Fokwa, Boniface P.T.'
_cell_length_a 9.3511(11)
_cell_length_b 9.3511(11)
_cell_length_c 3.0116(4)
_cell_angle_alpha 90.
_cell_angle_beta 90.
_cell_angle_gamma 90.
_cell_volume 263.34
_cell_formula_units_Z 2
_symmetry_space_group_name_H-M 'P 4/m b m'
_symmetry_Int_Tables_number 127
_refine_ls_R_factor_all 0.0256
loop_
_symmetry_equiv_pos_site_id
_symmetry_equiv_pos_as_xyz
1 'y+1/2, x+1/2, -z'
2 '-y+1/2, -x+1/2, -z'
3 '-y, x, -z'
4 'y, -x, -z'
5 'x+1/2, -y+1/2, -z'
6 '-x+1/2, y+1/2, -z'
7 'x, y, -z'
8 '-x, -y, -z'
9 '-y+1/2, -x+1/2, z'
10 'y+1/2, x+1/2, z'
11 'y, -x, z'
12 '-y, x, z'
13 '-x+1/2, y+1/2, z'
14 'x+1/2, -y+1/2, z'
15 '-x, -y, z'
16 'x, y, z'
loop_
_atom_type_symbol
_atom_type_oxidation_number
Ru0+ 0
Ta0+ 0
B0+ 0
loop_
_atom_site_label
_atom_site_type_symbol
_atom_site_symmetry_multiplicity
_atom_site_Wyckoff_symbol
_atom_site_fract_x
_atom_site_fract_y
_atom_site_fract_z
_atom_site_B_iso_or_equiv
_atom_site_occupancy
_atom_site_attached_hydrogens
Ru1 Ru0+ 8 j 0.07125(8) 0.21765(8) 0.5 0.00416(14) 1 0
Ru2 Ru0+ 2 c 0. 0.5 0.5 0.0040(2) 1 0
Ta1 Ta0+ 4 g 0.32380(4) 0.17620(4) 0. 0.00493(12) 1 0
Ta2 Ta0+ 2 a 0. 0. 0. 0.00450(14) 1 0
B1 B0+ 4 g 0.1216(11) 0.3784(11) 0. 0.006(2) 1 0
loop_
_atom_site_aniso_label
_atom_site_aniso_type_symbol
_atom_site_aniso_U_11
_atom_site_aniso_U_22
_atom_site_aniso_U_33
_atom_site_aniso_U_12
_atom_site_aniso_U_13
_atom_site_aniso_U_23
Ru1 Ru0+ 0.0048(3) 0.0037(3) 0.0041(3) -0.0004(2) 0. 0.
Ru2 Ru0+ 0.0040(3) 0.0040(3) 0.0040(5) 0.0001(5) 0. 0.
Ta1 Ta0+ 0.00485(15) 0.00485(15) 0.0051(2) 0.00022(17) 0. 0.
Ta2 Ta0+ 0.00483(19) 0.00483(19) 0.0038(3) 0. 0. 0.
#End of TTdata_427424-ICSD