
#(C) 2017 by FIZ Karlsruhe - Leibniz Institute for Information Infrastructure.  All rights reserved.
data_428115-ICSD
_database_code_ICSD 428115
_audit_creation_date 2015-08-01
_chemical_name_systematic 'Barium lithium bismuthide (3/4/4)'
_chemical_formula_structural 'Ba3 Li4 Bi4'
_chemical_formula_sum 'Ba3 Bi4 Li4'
_chemical_name_structure_type Cu4Zr3Si4
_exptl_crystal_density_diffrn 6.44
_cell_measurement_temperature 200.
_publ_section_title

;
Synthesis and crystal chemistry of new ternary pnictides containing lithium -
adding structural complexity one step at a time
;
loop_
_citation_id
_citation_journal_full
_citation_year
_citation_journal_volume
_citation_page_first
_citation_page_last
_citation_journal_id_ASTM
primary 'Dalton Transactions' 2014 43 16889 16901 DTARAF
loop_
_publ_author_name
'Schaefer, Marion C.'
'Suen, Nian-Tzu'
'Bobev, Svilen'
_cell_length_a 5.0576(7)
_cell_length_b 7.8269(10)
_cell_length_c 16.619(2)
_cell_angle_alpha 90.
_cell_angle_beta 90.
_cell_angle_gamma 90.
_cell_volume 657.86
_cell_formula_units_Z 2
_symmetry_space_group_name_H-M 'I m m m'
_symmetry_Int_Tables_number 71
_refine_ls_R_factor_all 0.0147
loop_
_symmetry_equiv_pos_site_id
_symmetry_equiv_pos_as_xyz
1 'x, y, -z'
2 'x, -y, z'
3 '-x, y, z'
4 '-x, -y, -z'
5 '-x, -y, z'
6 '-x, y, -z'
7 'x, -y, -z'
8 'x, y, z'
9 'x+1/2, y+1/2, -z+1/2'
10 'x+1/2, -y+1/2, z+1/2'
11 '-x+1/2, y+1/2, z+1/2'
12 '-x+1/2, -y+1/2, -z+1/2'
13 '-x+1/2, -y+1/2, z+1/2'
14 '-x+1/2, y+1/2, -z+1/2'
15 'x+1/2, -y+1/2, -z+1/2'
16 'x+1/2, y+1/2, z+1/2'
loop_
_atom_type_symbol
_atom_type_oxidation_number
Ba0+ 0
Bi0+ 0
Li0+ 0
loop_
_atom_site_label
_atom_site_type_symbol
_atom_site_symmetry_multiplicity
_atom_site_Wyckoff_symbol
_atom_site_fract_x
_atom_site_fract_y
_atom_site_fract_z
_atom_site_B_iso_or_equiv
_atom_site_occupancy
_atom_site_attached_hydrogens
Ba1 Ba0+ 4 j 0.5 0. 0.36965(4) 0.01062(17) 1 0
Ba2 Ba0+ 2 a 0. 0. 0. 0.0095(2) 1 0
Bi1 Bi0+ 4 i 0. 0. 0.21399(3) 0.00976(13) 1 0
Bi2 Bi0+ 4 h 0. 0.19514(5) 0.5 0.00923(13) 1 0
Li1 Li0+ 8 l 0. 0.3016(18) 0.3258(9) 0.022(3) 1 0
loop_
_atom_site_aniso_label
_atom_site_aniso_type_symbol
_atom_site_aniso_U_11
_atom_site_aniso_U_22
_atom_site_aniso_U_33
_atom_site_aniso_U_12
_atom_site_aniso_U_13
_atom_site_aniso_U_23
Ba1 Ba0+ 0.0082(3) 0.0148(4) 0.0088(3) 0. 0. 0.
Ba2 Ba0+ 0.0100(5) 0.0081(5) 0.0104(5) 0. 0. 0.
Bi1 Bi0+ 0.0079(2) 0.0124(2) 0.0090(2) 0. 0. 0.
Bi2 Bi0+ 0.0087(2) 0.0085(2) 0.0104(2) 0. 0. 0.
Li1 Li0+ 0.037(9) 0.015(7) 0.014(8) 0. 0. 0.008(6)
#End of TTdata_428115-ICSD