
#(C) 2017 by FIZ Karlsruhe - Leibniz Institute for Information Infrastructure.  All rights reserved.
data_42828-ICSD
_database_code_ICSD 42828
_audit_creation_date 2000-07-15
_chemical_name_systematic 'Barium silicide (3/4)'
_chemical_formula_structural 'Ba3 Si4'
_chemical_formula_sum 'Ba3 Si4'
_chemical_name_structure_type Ba3Ge4
_exptl_crystal_density_diffrn 4.05
_publ_section_title 'Zur Kenntnis von Ba3 Si4'
loop_
_citation_id
_citation_journal_full
_citation_year
_citation_journal_volume
_citation_page_first
_citation_page_last
_citation_journal_id_ASTM
primary

;
Zeitschrift fuer Naturforschung, Teil B. Anorganische Chemie, Organische
Chemie (2,1947-32,1977)
; 1969 24 457 458 ZENBAX
loop_
_publ_author_name
'Eisenmann, B.'
'Janzon, K.H.'
'Schaefer, H.'
'Weiss, A.'
_cell_length_a 8.52(2)
_cell_length_b 8.52(2)
_cell_length_c 11.84(2)
_cell_angle_alpha 90.
_cell_angle_beta 90.
_cell_angle_gamma 90.
_cell_volume 859.47
_cell_formula_units_Z 4
_symmetry_space_group_name_H-M 'P 42/m n m'
_symmetry_Int_Tables_number 136
_refine_ls_R_factor_all 0.135
loop_
_symmetry_equiv_pos_site_id
_symmetry_equiv_pos_as_xyz
1 '-y+1/2, x+1/2, -z+1/2'
2 'y+1/2, -x+1/2, -z+1/2'
3 'y, x, -z'
4 '-y, -x, -z'
5 'y+1/2, -x+1/2, z+1/2'
6 '-y+1/2, x+1/2, z+1/2'
7 '-y, -x, z'
8 'y, x, z'
9 'x+1/2, -y+1/2, -z+1/2'
10 '-x+1/2, y+1/2, -z+1/2'
11 'x, y, -z'
12 '-x, -y, -z'
13 '-x+1/2, y+1/2, z+1/2'
14 'x+1/2, -y+1/2, z+1/2'
15 '-x, -y, z'
16 'x, y, z'
loop_
_atom_type_symbol
_atom_type_oxidation_number
Ba0+ 0
Si0+ 0
loop_
_atom_site_label
_atom_site_type_symbol
_atom_site_symmetry_multiplicity
_atom_site_Wyckoff_symbol
_atom_site_fract_x
_atom_site_fract_y
_atom_site_fract_z
_atom_site_B_iso_or_equiv
_atom_site_occupancy
_atom_site_attached_hydrogens
Ba1 Ba0+ 4 f 0.333 0.333 0 . 1. 0
Ba2 Ba0+ 4 e 0 0 0.17 . 1. 0
Ba3 Ba0+ 4 d 0 0.5 0.25 . 1. 0
Si1 Si0+ 8 i 0.892 0.298 0 . 1. 0
Si2 Si0+ 8 j 0.204 0.204 0.356 . 1. 0
#End of TTdata_42828-ICSD