
#(C) 2017 by FIZ Karlsruhe - Leibniz Institute for Information Infrastructure.  All rights reserved.
data_428492-ICSD
_database_code_ICSD 428492
_audit_creation_date 2015-08-01
_chemical_name_systematic 'Lanthanum tetracopper triphosphide'
_chemical_formula_structural 'La Cu4 P3'
_chemical_formula_sum 'Cu4 La1 P3'
_exptl_crystal_density_diffrn 6.55
_cell_measurement_temperature 90.
_publ_section_title

;
Distorted phosphorus and copper square-planar layers in La Cu1+x P2 and La Cu4
P3: synthesis, crystal structure, and physical properties
;
loop_
_citation_id
_citation_journal_full
_citation_year
_citation_journal_volume
_citation_page_first
_citation_page_last
_citation_journal_id_ASTM
primary 'Inorganic Chemistry' 2015 54 890 897 INOCAJ
loop_
_publ_author_name
'Wang, Jian'
'Lee, Kathleen'
'Kovnir, Kirill'
_cell_length_a 5.7881(18)
_cell_length_b 5.7881(18)
_cell_length_c 7.353(2)
_cell_angle_alpha 90.
_cell_angle_beta 90.
_cell_angle_gamma 90.
_cell_volume 246.34
_cell_formula_units_Z 2
_symmetry_space_group_name_H-M 'P 4/n m m Z'
_symmetry_Int_Tables_number 129
_refine_ls_R_factor_all 0.0239
loop_
_symmetry_equiv_pos_site_id
_symmetry_equiv_pos_as_xyz
1 'y+1/2, x+1/2, -z'
2 '-y, x+1/2, -z'
3 'y+1/2, -x, -z'
4 '-y, -x, -z'
5 'x+1/2, y+1/2, -z'
6 '-x, y+1/2, -z'
7 'x+1/2, -y, -z'
8 '-x, -y, -z'
9 '-y+1/2, -x+1/2, z'
10 'y, -x+1/2, z'
11 '-y+1/2, x, z'
12 'y, x, z'
13 '-x+1/2, -y+1/2, z'
14 'x, -y+1/2, z'
15 '-x+1/2, y, z'
16 'x, y, z'
loop_
_atom_type_symbol
_atom_type_oxidation_number
La3+ 3
Cu1+ 1
P2- -2.33
loop_
_atom_site_label
_atom_site_type_symbol
_atom_site_symmetry_multiplicity
_atom_site_Wyckoff_symbol
_atom_site_fract_x
_atom_site_fract_y
_atom_site_fract_z
_atom_site_B_iso_or_equiv
_atom_site_occupancy
_atom_site_attached_hydrogens
La1 La3+ 2 c 0.25 0.25 0.02013(8) 0.0045(3) 1 0
Cu1 Cu1+ 8 j 0.48269(9) 0.01731(9) -0.32741(7) 0.0078(3) 1 0
P1 P2- 4 f -0.25 0.25 -0.1534(2) 0.0045(4) 1 0
P2 P2- 2 c 0.25 0.25 0.4756(3) 0.0049(5) 1 0
loop_
_atom_site_aniso_label
_atom_site_aniso_type_symbol
_atom_site_aniso_U_11
_atom_site_aniso_U_22
_atom_site_aniso_U_33
_atom_site_aniso_U_12
_atom_site_aniso_U_13
_atom_site_aniso_U_23
La1 La3+ 0.0044(3) 0.0044(3) 0.0047(4) 0. 0. 0.
Cu1 Cu1+ 0.0089(3) 0.0089(3) 0.0056(4) 0.0004(2) -0.00026(14) 0.00026(14)
P1 P2- 0.0050(7) 0.0054(8) 0.0031(6) 0. 0. 0.
P2 P2- 0.0056(7) 0.0056(7) 0.0035(10) 0. 0. 0.
#End of TTdata_428492-ICSD