
#(C) 2017 by FIZ Karlsruhe - Leibniz Institute for Information Infrastructure.  All rights reserved.
data_428471-ICSD
_database_code_ICSD 428471
_audit_creation_date 2016-02-01
_chemical_name_systematic 'Scandium nickel germanide (1/1/1)'
_chemical_formula_structural 'Sc Ni Ge'
_chemical_formula_sum 'Ge1 Ni1 Sc1'
_chemical_name_structure_type TiNiSi-MgSrSi
_exptl_crystal_density_diffrn 6.28
_cell_measurement_temperature 293.
_publ_section_title

;
The germanides ScTGe (T = Co, Ni, Cu, Ru, Rh, Pd, Ag, Ir, Pt, Au). - Structure
and 45Sc solid state NMR spectroscopy
;
loop_
_citation_id
_citation_journal_full
_citation_year
_citation_journal_volume
_citation_page_first
_citation_page_last
_citation_journal_id_ASTM
primary 'Solid State Sciences' 2015 39 15 22 SSSCFJ
loop_
_publ_author_name
'Heying, Birgit'
'Haverkamp, Sandra'
'Rodewald, Ute Ch.'
'Eckert, Hellmut'
'Peter, Sebastian C.'
'Poettgen, Rainer'
_cell_length_a 6.456(1)
_cell_length_b 4.076(1)
_cell_length_c 7.083(2)
_cell_angle_alpha 90.
_cell_angle_beta 90.
_cell_angle_gamma 90.
_cell_volume 186.38
_cell_formula_units_Z 4
_symmetry_space_group_name_H-M 'P n m a'
_symmetry_Int_Tables_number 62
_refine_ls_R_factor_all 0.0223
loop_
_symmetry_equiv_pos_site_id
_symmetry_equiv_pos_as_xyz
1 'x+1/2, y, -z+1/2'
2 'x, -y+1/2, z'
3 '-x+1/2, y+1/2, z+1/2'
4 '-x, -y, -z'
5 '-x+1/2, -y, z+1/2'
6 '-x, y+1/2, -z'
7 'x+1/2, -y+1/2, -z+1/2'
8 'x, y, z'
loop_
_atom_type_symbol
_atom_type_oxidation_number
Sc0+ 0
Ni0+ 0
Ge0+ 0
loop_
_atom_site_label
_atom_site_type_symbol
_atom_site_symmetry_multiplicity
_atom_site_Wyckoff_symbol
_atom_site_fract_x
_atom_site_fract_y
_atom_site_fract_z
_atom_site_B_iso_or_equiv
_atom_site_occupancy
_atom_site_attached_hydrogens
Sc1 Sc0+ 4 c -0.00393(13) 0.25 0.70694(9) 0.00517(12) 1 0
Ni1 Ni0+ 4 c 0.18687(7) 0.25 0.07816(7) 0.00647(13) 1 0
Ge1 Ge0+ 4 c 0.29296(6) 0.25 0.40640(6) 0.00478(11) 1 0
loop_
_atom_site_aniso_label
_atom_site_aniso_type_symbol
_atom_site_aniso_U_11
_atom_site_aniso_U_22
_atom_site_aniso_U_33
_atom_site_aniso_U_12
_atom_site_aniso_U_13
_atom_site_aniso_U_23
Sc1 Sc0+ 0.0045(2) 0.0057(2) 0.0053(2) 0. -0.0004(3) 0.
Ni1 Ni0+ 0.0093(2) 0.0053(3) 0.0048(2) 0. 0.00092(19) 0.
Ge1 Ge0+ 0.00632(17) 0.0034(2) 0.00461(18) 0. 0.00016(16) 0.
#End of TTdata_428471-ICSD