
#(C) 2017 by FIZ Karlsruhe - Leibniz Institute for Information Infrastructure.  All rights reserved.
data_429212-ICSD
_database_code_ICSD 429212
_audit_creation_date 2015-08-01
_chemical_name_systematic 'Digold tetranickel heptasilicide'
_chemical_formula_structural 'Au2 Ni4 Si7'
_chemical_formula_sum 'Au2 Ni4 Si7'
_exptl_crystal_density_diffrn 7.57
_cell_measurement_temperature 293.
_publ_section_title

;
Au Ni3 Si6 and Au2 Ni4 Si7: two new structure types related to the Ca F2 -
type structure
;
loop_
_citation_id
_citation_journal_full
_citation_year
_citation_journal_volume
_citation_page_first
_citation_page_last
_citation_journal_id_ASTM
primary 'Zeitschrift fuer Anorganische und Allgemeine Chemie (1950) (DE)' 2015
641 1428 1434 ZAACAB
loop_
_publ_author_name
'Stacher, Matthias'
'Effenberger, Herta S.'
'Ipser, Herbert'
'Richter, Klaus W.'
_cell_length_a 12.786(3)
_cell_length_b 3.7765(8)
_cell_length_c 7.9794(16)
_cell_angle_alpha 90.
_cell_angle_beta 109.92(3)
_cell_angle_gamma 90.
_cell_volume 362.24
_cell_formula_units_Z 2
_symmetry_space_group_name_H-M 'C 1 2/m 1'
_symmetry_Int_Tables_number 12
_refine_ls_R_factor_all 0.0362
loop_
_symmetry_equiv_pos_site_id
_symmetry_equiv_pos_as_xyz
1 '-x, y, -z'
2 '-x, -y, -z'
3 'x, -y, z'
4 'x, y, z'
5 '-x+1/2, y+1/2, -z'
6 '-x+1/2, -y+1/2, -z'
7 'x+1/2, -y+1/2, z'
8 'x+1/2, y+1/2, z'
loop_
_atom_type_symbol
_atom_type_oxidation_number
Au0+ 0
Ni0+ 0
Si0+ 0
loop_
_atom_site_label
_atom_site_type_symbol
_atom_site_symmetry_multiplicity
_atom_site_Wyckoff_symbol
_atom_site_fract_x
_atom_site_fract_y
_atom_site_fract_z
_atom_site_B_iso_or_equiv
_atom_site_occupancy
_atom_site_attached_hydrogens
Au1 Au0+ 4 i 0.19385(2) 0. 0.09278(3) 0.01336(14) 1 0
Ni1 Ni0+ 4 i 0.34395(8) 0. 0.41092(12) 0.00634(19) 1 0
Ni2 Ni0+ 4 i 0.00557(8) 0. 0.16658(11) 0.00648(18) 1 0
Si1 Si0+ 4 i 0.16484(17) 0. 0.4234(2) 0.0072(3) 1 0
Si2 Si0+ 4 i 0.49505(16) 0. 0.6656(2) 0.0066(3) 1 0
Si3 Si0+ 4 i 0.15475(18) 0. 0.7594(3) 0.0074(3) 1 0
Si4 Si0+ 2 b 0. 0.5 0. 0.0170(7) 1 0
loop_
_atom_site_aniso_label
_atom_site_aniso_type_symbol
_atom_site_aniso_U_11
_atom_site_aniso_U_22
_atom_site_aniso_U_33
_atom_site_aniso_U_12
_atom_site_aniso_U_13
_atom_site_aniso_U_23
Au1 Au0+ 0.00951(19) 0.02052(19) 0.00775(17) 0. -0.00006(11) 0.
Ni1 Ni0+ 0.0088(4) 0.0021(3) 0.0068(3) 0. 0.0010(3) 0.
Ni2 Ni0+ 0.0096(4) 0.0018(3) 0.0069(3) 0. 0.0012(3) 0.
Si1 Si0+ 0.0092(8) 0.0024(6) 0.0082(7) 0. 0.0005(6) 0.
Si2 Si0+ 0.0092(8) 0.0014(6) 0.0076(7) 0. 0.0008(6) 0.
Si3 Si0+ 0.0108(8) 0.0034(6) 0.0073(7) 0. 0.0024(6) 0.
Si4 Si0+ 0.042(2) 0.0014(9) 0.0111(11) 0. 0.0129(13) 0.
#End of TTdata_429212-ICSD