
#(C) 2017 by FIZ Karlsruhe - Leibniz Institute for Information Infrastructure.  All rights reserved.
data_42979-ICSD
_database_code_ICSD 42979
_audit_creation_date 2000-07-15
_chemical_name_systematic 'Manganese nitride (2/1)'
_chemical_formula_structural 'Mn2 N'
_chemical_formula_sum 'Mn2 N1'
_chemical_name_structure_type Fe2N-zeta
_exptl_crystal_density_diffrn 6.52
_publ_section_title 'Neutron diffraction study of antiferromagnetic Mn2 N'
loop_
_citation_id
_citation_journal_full
_citation_year
_citation_journal_volume
_citation_page_first
_citation_page_last
_citation_journal_id_ASTM
primary 'Journal of the Physical Society of Japan' 1968 25 234 238 JUPSAU
loop_
_publ_author_name
'Mekata, M.'
'Haruna, J.'
'Takaki, H.'
_cell_length_a 5.668
_cell_length_b 4.909
_cell_length_c 4.537
_cell_angle_alpha 90.
_cell_angle_beta 90.
_cell_angle_gamma 90.
_cell_volume 126.24
_cell_formula_units_Z 4
_symmetry_space_group_name_H-M 'P b n a'
_symmetry_Int_Tables_number 60
loop_
_symmetry_equiv_pos_site_id
_symmetry_equiv_pos_as_xyz
1 '-x, y+1/2, z'
2 'x+1/2, y, -z+1/2'
3 'x+1/2, -y+1/2, z+1/2'
4 '-x, -y, -z'
5 'x, -y+1/2, -z'
6 '-x+1/2, -y, z+1/2'
7 '-x+1/2, y+1/2, -z+1/2'
8 'x, y, z'
loop_
_atom_type_symbol
_atom_type_oxidation_number
Mn0+ 0
N0+ 0
loop_
_atom_site_label
_atom_site_type_symbol
_atom_site_symmetry_multiplicity
_atom_site_Wyckoff_symbol
_atom_site_fract_x
_atom_site_fract_y
_atom_site_fract_z
_atom_site_B_iso_or_equiv
_atom_site_occupancy
_atom_site_attached_hydrogens
Mn1 Mn0+ 8 d 0.125 0.083 0.25 . 1. 0
N1 N0+ 4 c 0.375 0.25 0 . 1. 0
#End of TTdata_42979-ICSD