
#(C) 2017 by FIZ Karlsruhe - Leibniz Institute for Information Infrastructure.  All rights reserved.
data_429881-ICSD
_database_code_ICSD 429881
_audit_creation_date 2016-02-01
_chemical_name_systematic 'Trilithium sodium digermanide'
_chemical_formula_structural 'Li3 Na Ge2'
_chemical_formula_sum 'Ge2 Li3 Na1'
_exptl_crystal_density_diffrn 2.85
_cell_measurement_temperature 123.
_publ_section_title

;
(Ge2)(4-) dumbbells with very short Ge-Ge distances in the Zintl phase Li3 Na
Ge2 : a solid-state equivalent to molecular O2
;
loop_
_citation_id
_citation_journal_full
_citation_year
_citation_journal_volume
_citation_page_first
_citation_page_last
_citation_journal_id_ASTM
primary 'Angewandte Chemie. International Edition' 2016 55 1075 1079 ACIEF5
loop_
_publ_author_name
'Scherf, Lavinia M.'
'Karttunen, Antti J.'
'Pecher, Oliver'
'Magusin, Pieter C.M.M.'
'Grey, Clare P.'
'Faessler, Thomas F.'
_cell_length_a 12.706(3)
_cell_length_b 4.4571(9)
_cell_length_c 7.7715(16)
_cell_angle_alpha 90.
_cell_angle_beta 90.
_cell_angle_gamma 90.
_cell_volume 440.11
_cell_formula_units_Z 4
_symmetry_space_group_name_H-M 'P n m a'
_symmetry_Int_Tables_number 62
_refine_ls_R_factor_all 0.0426
loop_
_symmetry_equiv_pos_site_id
_symmetry_equiv_pos_as_xyz
1 'x+1/2, y, -z+1/2'
2 'x, -y+1/2, z'
3 '-x+1/2, y+1/2, z+1/2'
4 '-x, -y, -z'
5 '-x+1/2, -y, z+1/2'
6 '-x, y+1/2, -z'
7 'x+1/2, -y+1/2, -z+1/2'
8 'x, y, z'
loop_
_atom_type_symbol
_atom_type_oxidation_number
Ge2- -2
Na1+ 1
Li1+ 1
loop_
_atom_site_label
_atom_site_type_symbol
_atom_site_symmetry_multiplicity
_atom_site_Wyckoff_symbol
_atom_site_fract_x
_atom_site_fract_y
_atom_site_fract_z
_atom_site_B_iso_or_equiv
_atom_site_occupancy
_atom_site_attached_hydrogens
Ge1 Ge2- 4 c 0.16521(5) 0.25 0.61786(10) 0.0079(2) 1 0
Ge2 Ge2- 4 c 0.35287(6) 0.25 0.59661(10) 0.0094(2) 1 0
Na1 Na1+ 4 c 0.0049(2) 0.25 0.3278(4) 0.0158(6) 1 0
Li1 Li1+ 4 c 0.2820(11) 0.25 0.9372(17) 0.015(3) 1 0
Li2 Li1+ 4 c 0.0616(11) 0.25 0.9265(16) 0.016(3) 1 0
Li3 Li1+ 4 c 0.2523(10) 0.25 0.274(2) 0.015(3) 1 0
loop_
_atom_site_aniso_label
_atom_site_aniso_type_symbol
_atom_site_aniso_U_11
_atom_site_aniso_U_22
_atom_site_aniso_U_33
_atom_site_aniso_U_12
_atom_site_aniso_U_13
_atom_site_aniso_U_23
Ge1 Ge2- 0.0080(4) 0.0086(4) 0.0072(4) 0. 0.0007(2) 0.
Ge2 Ge2- 0.0087(4) 0.0102(4) 0.0092(4) 0. 0.0003(2) 0.
Na1 Na1+ 0.0125(14) 0.0197(16) 0.0151(14) 0. -0.0004(11) 0.
Li1 Li1+ 0.023(7) 0.008(6) 0.015(7) 0. -0.006(5) 0.
Li2 Li1+ 0.027(7) 0.011(6) 0.010(6) 0. 0.002(5) 0.
Li3 Li1+ 0.020(6) 0.005(6) 0.019(7) 0. 0.002(5) 0.
#End of TTdata_429881-ICSD