
#(C) 2017 by FIZ Karlsruhe - Leibniz Institute for Information Infrastructure.  All rights reserved.
data_430391-ICSD
_database_code_ICSD 430391
_audit_creation_date 2016-08-01
_chemical_name_systematic 'Lanthanum copper phosphide oxide (3/4/4/2)'
_chemical_formula_structural 'La3 Cu4 P4 O2'
_chemical_formula_sum 'Cu4 La3 O2 P4'
_chemical_name_structure_type La3Cu4P4O2
_exptl_crystal_density_diffrn 6.28
_cell_measurement_temperature 300.
_publ_section_title

;
La3 Cu4 P4 O2 and La5 Cu4 P4 O4 Cl2. Synthesis, structure and 31P solid state
NMR spectroscopy
;
loop_
_citation_id
_citation_journal_full
_citation_year
_citation_journal_volume
_citation_page_first
_citation_page_last
_citation_journal_id_ASTM
primary 'Zeitschrift fuer Naturforschung, B: Chemical Sciences' 2016 71 149 155
ZNBSEN
loop_
_publ_author_name
'Bartsch, Timo'
'Benndorf, Christopher'
'Eckert, Hellmut'
'Eul, Matthias'
'Poettgen, Rainer'
_cell_length_a 4.0389(4)
_cell_length_b 4.0389(4)
_cell_length_c 26.817(3)
_cell_angle_alpha 90
_cell_angle_beta 90
_cell_angle_gamma 90
_cell_volume 437.45
_cell_formula_units_Z 2
_symmetry_space_group_name_H-M 'I 4/m m m'
_symmetry_Int_Tables_number 139
_refine_ls_R_factor_all 0.0355
loop_
_symmetry_equiv_pos_site_id
_symmetry_equiv_pos_as_xyz
1 'y, x, -z'
2 '-y, -x, -z'
3 '-y, x, -z'
4 'y, -x, -z'
5 '-x, y, -z'
6 'x, -y, -z'
7 'x, y, -z'
8 '-x, -y, -z'
9 '-y, -x, z'
10 'y, x, z'
11 'y, -x, z'
12 '-y, x, z'
13 'x, -y, z'
14 '-x, y, z'
15 '-x, -y, z'
16 'x, y, z'
17 'y+1/2, x+1/2, -z+1/2'
18 '-y+1/2, -x+1/2, -z+1/2'
19 '-y+1/2, x+1/2, -z+1/2'
20 'y+1/2, -x+1/2, -z+1/2'
21 '-x+1/2, y+1/2, -z+1/2'
22 'x+1/2, -y+1/2, -z+1/2'
23 'x+1/2, y+1/2, -z+1/2'
24 '-x+1/2, -y+1/2, -z+1/2'
25 '-y+1/2, -x+1/2, z+1/2'
26 'y+1/2, x+1/2, z+1/2'
27 'y+1/2, -x+1/2, z+1/2'
28 '-y+1/2, x+1/2, z+1/2'
29 'x+1/2, -y+1/2, z+1/2'
30 '-x+1/2, y+1/2, z+1/2'
31 '-x+1/2, -y+1/2, z+1/2'
32 'x+1/2, y+1/2, z+1/2'
loop_
_atom_type_symbol
_atom_type_oxidation_number
La0+ 0
Cu0+ 0
P0+ 0
O0+ 0
loop_
_atom_site_label
_atom_site_type_symbol
_atom_site_symmetry_multiplicity
_atom_site_Wyckoff_symbol
_atom_site_fract_x
_atom_site_fract_y
_atom_site_fract_z
_atom_site_B_iso_or_equiv
_atom_site_occupancy
_atom_site_attached_hydrogens
La1 La0+ 2 a 0 0 0 0.0164(6) 1 0
La2 La0+ 4 e 0.5 0.5 0.20275(7) 0.0186(4) 1 0
Cu1 Cu0+ 8 g 0.5 0 0.09436(9) 0.0204(7) 1 0
P1 P0+ 4 e 0 0 0.1397(3) 0.0183(18) 1 0
P2 P0+ 4 e 0.5 0.5 0.0424(3) 0.0175(14) 1 0
O1 O0+ 4 d 0.5 0 0.25 0.023(5) 1 0
loop_
_atom_site_aniso_label
_atom_site_aniso_type_symbol
_atom_site_aniso_U_11
_atom_site_aniso_U_22
_atom_site_aniso_U_33
_atom_site_aniso_U_12
_atom_site_aniso_U_13
_atom_site_aniso_U_23
La1 La0+ 0.0136(7) 0.0136(7) 0.0220(13) 0 0 0
La2 La0+ 0.0173(6) 0.0173(6) 0.0213(9) 0 0 0
Cu1 Cu0+ 0.0200(11) 0.0200(11) 0.0213(13) 0 0 0
P1 P0+ 0.0137(18) 0.0137(18) 0.027(5) 0 0 0
P2 P0+ 0.018(2) 0.018(2) 0.016(3) 0 0 0
O1 O0+ 0.020(6) 0.020(6) 0.029(11) 0 0 0
#End of TTdata_430391-ICSD