
#(C) 2017 by FIZ Karlsruhe - Leibniz Institute for Information Infrastructure.  All rights reserved.
data_430563-ICSD
_database_code_ICSD 430563
_audit_creation_date 2016-08-01
_chemical_name_systematic 'Iron(II,III) oxide'
_chemical_formula_structural 'Fe5 O7'
_chemical_formula_sum 'Fe5 O7'
_chemical_name_structure_type Y5S7
_exptl_crystal_density_diffrn 6.48
_cell_measurement_temperature 296.
_publ_section_title
'Structural complexity of simple Fe2 O3 at high pressures and temperatures'
loop_
_citation_id
_citation_journal_full
_citation_year
_citation_journal_volume
_citation_page_first
_citation_page_last
_citation_journal_id_ASTM
primary 'Nature Communications' 2016 7 10661-1 10661-6 NCAOBW
loop_
_publ_author_name
'Bykova, E.'
'Dubrovinsky, L.'
'Dubrovinskaia, N.'
'Bykov, M.'
'McCammon, C.'
'Ovsyannikov, S.V.'
'Liermann, H.-P.'
'Kupenko, I.'
'Chumakov, A.I.'
'Rueffer, R.'
'Hanfland, M.'
'Prakapenka, V.'
_cell_length_a 9.208(7)
_cell_length_b 2.7327(10)
_cell_length_c 8.270(5)
_cell_angle_alpha 90
_cell_angle_beta 105.50(8)
_cell_angle_gamma 90
_cell_volume 200.52
_cell_formula_units_Z 2
_symmetry_space_group_name_H-M 'C 1 2/m 1'
_symmetry_Int_Tables_number 12
_refine_ls_R_factor_all 0.0638
loop_
_symmetry_equiv_pos_site_id
_symmetry_equiv_pos_as_xyz
1 '-x, y, -z'
2 '-x, -y, -z'
3 'x, -y, z'
4 'x, y, z'
5 '-x+1/2, y+1/2, -z'
6 '-x+1/2, -y+1/2, -z'
7 'x+1/2, -y+1/2, z'
8 'x+1/2, y+1/2, z'
loop_
_atom_type_symbol
_atom_type_oxidation_number
Fe3+ 3
O2- -2
Fe2+ 2
O2- -2
Fe3+ 3
O2- -2
loop_
_atom_site_label
_atom_site_type_symbol
_atom_site_symmetry_multiplicity
_atom_site_Wyckoff_symbol
_atom_site_fract_x
_atom_site_fract_y
_atom_site_fract_z
_atom_site_B_iso_or_equiv
_atom_site_occupancy
_atom_site_attached_hydrogens
Fe1 Fe3+ 4 i 0.3019(4) 0. 0.1931(5) 0.0123(19) 1 0
O1 O2- 4 i 0.038(3) 0. 0.783(3) 0.022(4) 1 0
Fe2 Fe2+ 2 a 0. 0. 0. 0.014(2) 1 0
O2 O2- 4 i 0.250(3) 0. 0.635(3) 0.016(4) 1 0
Fe3 Fe3+ 4 i 0.1094(5) 0. 0.4145(5) 0.016(2) 1 0
O3 O2- 4 i 0.343(3) 0. 0.948(2) 0.014(3) 1 0
O4 O2- 2 d 0.5 0. 0.5 0.031(6) 1 0
#End of TTdata_430563-ICSD