
#(C) 2017 by FIZ Karlsruhe - Leibniz Institute for Information Infrastructure.  All rights reserved.
data_430924-ICSD
_database_code_ICSD 430924
_audit_creation_date 2016-08-01
_chemical_name_systematic 'Tripalladium arsenide'
_chemical_formula_structural 'Pd3 As'
_chemical_formula_sum 'As1 Pd3'
_chemical_name_structure_type Ni3P
_exptl_crystal_density_diffrn 10.91
_cell_measurement_temperature 296.
_publ_section_title

;
Crystal structures and hydrogenation properties of palladium-rich compounds
with elements from groups 12-16
;
loop_
_citation_id
_citation_journal_full
_citation_year
_citation_journal_volume
_citation_page_first
_citation_page_last
_citation_journal_id_ASTM
primary 'Zeitschrift fuer Naturforschung, B: Chemical Sciences' 2016 71 503 508
ZNBSEN
loop_
_publ_author_name
'Goetze, Andre'
'Sander, Jonas Michael'
'Kohlmann, Holger'
_cell_length_a 9.97613(14)
_cell_length_b 9.97613(14)
_cell_length_c 4.82191(8)
_cell_angle_alpha 90.
_cell_angle_beta 90.
_cell_angle_gamma 90.
_cell_volume 479.88
_cell_formula_units_Z 8
_symmetry_space_group_name_H-M 'I -4'
_symmetry_Int_Tables_number 82
_refine_ls_R_factor_all 0.0287
loop_
_symmetry_equiv_pos_site_id
_symmetry_equiv_pos_as_xyz
1 '-y, x, -z'
2 'y, -x, -z'
3 '-x, -y, z'
4 'x, y, z'
5 '-y+1/2, x+1/2, -z+1/2'
6 'y+1/2, -x+1/2, -z+1/2'
7 '-x+1/2, -y+1/2, z+1/2'
8 'x+1/2, y+1/2, z+1/2'
loop_
_atom_type_symbol
_atom_type_oxidation_number
Pd1+ 1
As3- -3
Pd1+ 1
loop_
_atom_site_label
_atom_site_type_symbol
_atom_site_symmetry_multiplicity
_atom_site_Wyckoff_symbol
_atom_site_fract_x
_atom_site_fract_y
_atom_site_fract_z
_atom_site_B_iso_or_equiv
_atom_site_occupancy
_atom_site_attached_hydrogens
Pd1 Pd1+ 8 g 0.0797(3) 0.1092(3) 0.2566(11) 0.0068(8) 1. 0
Pd2 Pd1+ 8 g 0.1349(3) 0.4688(3) 0.0180(9) 0.0031(8) 1. 0
As1 As3- 8 g 0.2824(4) 0.0399(4) 0.0191(13) 0.0078(10) 1. 0
Pd3 Pd1+ 8 g 0.3290(3) 0.2775(3) 0.2545(11) 0.0023(8) 1. 0
#End of TTdata_430924-ICSD