
#(C) 2017 by FIZ Karlsruhe - Leibniz Institute for Information Infrastructure.  All rights reserved.
data_43194-ICSD
_database_code_ICSD 43194
_audit_creation_date 2000-07-15
_chemical_name_systematic 'Iron carbide (5/2) - chi'
_chemical_formula_structural 'Fe5 C2'
_chemical_formula_sum 'C2 Fe5'
_chemical_name_structure_type Pd5B2
_exptl_crystal_density_diffrn 7.6
_publ_section_title 'Nature of chi-carbide and its possible occurence in steels'
loop_
_citation_id
_citation_journal_full
_citation_year
_citation_journal_volume
_citation_page_first
_citation_page_last
_citation_journal_id_ASTM
primary 'Nature (London)' 1966 212 248 250 NATUAS
loop_
_publ_author_name
'Jack, K.H.'
'Wild, S.'
_cell_length_a 11.562
_cell_length_b 4.5727
_cell_length_c 5.0595
_cell_angle_alpha 90.
_cell_angle_beta 97.74(4)
_cell_angle_gamma 90.
_cell_volume 265.06
_cell_formula_units_Z 4
_symmetry_space_group_name_H-M 'C 1 2/c 1'
_symmetry_Int_Tables_number 15
loop_
_symmetry_equiv_pos_site_id
_symmetry_equiv_pos_as_xyz
1 'x, -y, z+1/2'
2 '-x, -y, -z'
3 '-x, y, -z+1/2'
4 'x, y, z'
5 'x+1/2, -y+1/2, z+1/2'
6 '-x+1/2, -y+1/2, -z'
7 '-x+1/2, y+1/2, -z+1/2'
8 'x+1/2, y+1/2, z'
loop_
_atom_type_symbol
_atom_type_oxidation_number
Fe0+ 0
C0+ 0
loop_
_atom_site_label
_atom_site_type_symbol
_atom_site_symmetry_multiplicity
_atom_site_Wyckoff_symbol
_atom_site_fract_x
_atom_site_fract_y
_atom_site_fract_z
_atom_site_B_iso_or_equiv
_atom_site_occupancy
_atom_site_attached_hydrogens
Fe1 Fe0+ 8 f 0.0957(5) 0.0879(15) 0.4184(10) . 1. 0
Fe2 Fe0+ 8 f 0.2147(4) 0.5837(15) 0.306(1) . 1. 0
Fe3 Fe0+ 4 e 0 0.5732(23) 0.25 . 1. 0
C1 C0+ 8 f 0.115(3) 0.303(8) 0.084(7) . 1. 0
#End of TTdata_43194-ICSD