
#(C) 2017 by FIZ Karlsruhe - Leibniz Institute for Information Infrastructure.  All rights reserved.
data_43204-ICSD
_database_code_ICSD 43204
_audit_creation_date 2000-07-15
_chemical_name_systematic 'Zirconium iron phosphide (1/1/1)'
_chemical_formula_structural 'Zr Fe P'
_chemical_formula_sum 'Fe1 P1 Zr1'
_chemical_name_structure_type TiNiSi-MgSrSi
_exptl_crystal_density_diffrn 6.99
_publ_section_title 'The crystal structure of Zr Fe P and related compounds'
loop_
_citation_id
_citation_journal_full
_citation_year
_citation_journal_volume
_citation_page_first
_citation_page_last
_citation_journal_id_ASTM
primary 'Acta Chemica Scandinavica (1-27,1973-42,1988)' 1966 20 2250 2254 ACSAA4
loop_
_publ_author_name
'Rundqvist, S.'
'Nawapong, P.C.'
_cell_length_a 6.3088(4)
_cell_length_b 3.7401(2)
_cell_length_c 7.1717(4)
_cell_angle_alpha 90.
_cell_angle_beta 90.
_cell_angle_gamma 90.
_cell_volume 169.22
_cell_formula_units_Z 4
_symmetry_space_group_name_H-M 'P n m a'
_symmetry_Int_Tables_number 62
_refine_ls_R_factor_all 0.188
loop_
_symmetry_equiv_pos_site_id
_symmetry_equiv_pos_as_xyz
1 'x+1/2, y, -z+1/2'
2 'x, -y+1/2, z'
3 '-x+1/2, y+1/2, z+1/2'
4 '-x, -y, -z'
5 '-x+1/2, -y, z+1/2'
6 '-x, y+1/2, -z'
7 'x+1/2, -y+1/2, -z+1/2'
8 'x, y, z'
loop_
_atom_type_symbol
_atom_type_oxidation_number
Zr0+ 0
Fe0+ 0
P0+ 0
loop_
_atom_site_label
_atom_site_type_symbol
_atom_site_symmetry_multiplicity
_atom_site_Wyckoff_symbol
_atom_site_fract_x
_atom_site_fract_y
_atom_site_fract_z
_atom_site_B_iso_or_equiv
_atom_site_occupancy
_atom_site_attached_hydrogens
Zr1 Zr0+ 4 c 0.0199(4) 0.25 0.1830(3) 0.16(3) 1. 0
Fe1 Fe0+ 4 c 0.1468(6) 0.25 0.5615(5) 0.25(4) 1. 0
P1 P0+ 4 c 0.7782(12) 0.25 0.6160(9) 0.32(8) 1. 0
#End of TTdata_43204-ICSD