
#(C) 2017 by FIZ Karlsruhe - Leibniz Institute for Information Infrastructure.  All rights reserved.
data_432067-ICSD
_database_code_ICSD 432067
_audit_creation_date 2017-08-01
_chemical_name_systematic 'Copper(I) dicyanamide'
_chemical_formula_structural 'Cu (N (C N)2)'
_chemical_formula_sum 'C2 Cu1 N3'
_exptl_crystal_density_diffrn 2.59
_cell_measurement_temperature 248.
_publ_section_title

;
About the air- and water-stable copper(I) dicyanamide: synthesis, crystal
structure, vibrational spectra and DSC/TG analysis of Cu[N(CN)2]
;
loop_
_citation_id
_citation_journal_full
_citation_year
_citation_journal_volume
_citation_page_first
_citation_page_last
_citation_journal_id_ASTM
primary 'Zeitschrift fuer Naturforschung, B: Chemical Sciences' 2017 72 159 165
ZNBSEN
loop_
_publ_author_name
'Reckeweg, Olaf'
'Dinnebier, Robert E.'
'Schulz, Armin'
'Blaschkowski, Bjoern'
'Schneck, Christof'
'Schleid, Thomas'
_cell_length_a 3.5628(3)
_cell_length_b 6.1110(9)
_cell_length_c 15.2587(10)
_cell_angle_alpha 90
_cell_angle_beta 90
_cell_angle_gamma 90
_cell_volume 332.21
_cell_formula_units_Z 4
_symmetry_space_group_name_H-M 'C m c m'
_symmetry_Int_Tables_number 63
_refine_ls_R_factor_all 0.048
loop_
_symmetry_equiv_pos_site_id
_symmetry_equiv_pos_as_xyz
1 '-x, y, -z+1/2'
2 '-x, -y, z+1/2'
3 '-x, y, z'
4 '-x, -y, -z'
5 'x, -y, z+1/2'
6 'x, y, -z+1/2'
7 'x, -y, -z'
8 'x, y, z'
9 '-x+1/2, y+1/2, -z+1/2'
10 '-x+1/2, -y+1/2, z+1/2'
11 '-x+1/2, y+1/2, z'
12 '-x+1/2, -y+1/2, -z'
13 'x+1/2, -y+1/2, z+1/2'
14 'x+1/2, y+1/2, -z+1/2'
15 'x+1/2, -y+1/2, -z'
16 'x+1/2, y+1/2, z'
loop_
_atom_type_symbol
_atom_type_oxidation_number
Cu1+ 1
N3- -3
C4+ 4
loop_
_atom_site_label
_atom_site_type_symbol
_atom_site_symmetry_multiplicity
_atom_site_Wyckoff_symbol
_atom_site_fract_x
_atom_site_fract_y
_atom_site_fract_z
_atom_site_B_iso_or_equiv
_atom_site_occupancy
_atom_site_attached_hydrogens
Cu1 Cu1+ 4 a 0 0 0 4.54(12) 1 0
N1 N3- 4 c 0 0.309(4) 0.25 4.54(12) 1 0
N2 N3- 8 f 0 0.1383(15) 0.1037(5) 4.54(12) 1 0
C1 C4+ 8 f 0 0.209(2) 0.1736(3) 4.54(12) 1 0
#End of TTdata_432067-ICSD