
#(C) 2017 by FIZ Karlsruhe - Leibniz Institute for Information Infrastructure.  All rights reserved.
data_432293-ICSD
_database_code_ICSD 432293
_audit_creation_date 2017-08-01
_chemical_name_systematic 'Yttrium iridium antimonide (1/1/1)'
_chemical_formula_structural 'Y Ir Sb'
_chemical_formula_sum 'Ir1 Sb1 Y1'
_chemical_name_structure_type TiNiSi-MgSrSi
_exptl_crystal_density_diffrn 10.74
_cell_measurement_temperature 293.
_publ_section_title

;
Crystal structure, magnetism, 89Y solid state NMR, and 121Sb Moessbauer
spectroscopic investigations of YIrSb
;
loop_
_citation_id
_citation_journal_full
_citation_year
_citation_journal_volume
_citation_page_first
_citation_page_last
_citation_journal_id_ASTM
primary 'Zeitschrift fuer Anorganische und Allgemeine Chemie (1950) (DE)' 2017
643 294 298 ZAACAB
loop_
_publ_author_name
'Benndorf, Christopher'
'Heletta, Lukas'
'Block, Theresa'
'Eckert, Hellmut'
'Poettgen, Rainer'
_cell_length_a 7.1106(9)
_cell_length_b 4.4774(5)
_cell_length_c 7.8420(8)
_cell_angle_alpha 90.
_cell_angle_beta 90.
_cell_angle_gamma 90.
_cell_volume 249.67
_cell_formula_units_Z 4
_symmetry_space_group_name_H-M 'P n m a'
_symmetry_Int_Tables_number 62
_refine_ls_R_factor_all 0.0194
loop_
_symmetry_equiv_pos_site_id
_symmetry_equiv_pos_as_xyz
1 'x+1/2, y, -z+1/2'
2 'x, -y+1/2, z'
3 '-x+1/2, y+1/2, z+1/2'
4 '-x, -y, -z'
5 '-x+1/2, -y, z+1/2'
6 '-x, y+1/2, -z'
7 'x+1/2, -y+1/2, -z+1/2'
8 'x, y, z'
loop_
_atom_type_symbol
_atom_type_oxidation_number
Y0+ 0
Ir0+ 0
Sb0+ 0
loop_
_atom_site_label
_atom_site_type_symbol
_atom_site_symmetry_multiplicity
_atom_site_Wyckoff_symbol
_atom_site_fract_x
_atom_site_fract_y
_atom_site_fract_z
_atom_site_B_iso_or_equiv
_atom_site_occupancy
_atom_site_attached_hydrogens
Y1 Y0+ 4 c 0.00819(9) 0.25 0.69564(9) 0.00593(17) 1 0
Ir1 Ir0+ 4 c 0.29470(4) 0.25 0.41327(4) 0.00585(8) 1 0
Sb1 Sb0+ 4 c 0.18281(7) 0.25 0.08971(7) 0.00548(11) 1 0
loop_
_atom_site_aniso_label
_atom_site_aniso_type_symbol
_atom_site_aniso_U_11
_atom_site_aniso_U_22
_atom_site_aniso_U_33
_atom_site_aniso_U_12
_atom_site_aniso_U_13
_atom_site_aniso_U_23
Y1 Y0+ 0.0060(3) 0.0064(3) 0.0054(3) 0 0.00047(19) 0
Ir1 Ir0+ 0.00705(14) 0.00531(14) 0.00519(14) 0 0.00004(8) 0
Sb1 Sb0+ 0.00718(19) 0.0043(2) 0.0050(2) 0 0.00004(13) 0
#End of TTdata_432293-ICSD