
#(C) 2017 by FIZ Karlsruhe - Leibniz Institute for Information Infrastructure.  All rights reserved.
data_43283-ICSD
_database_code_ICSD 43283
_audit_creation_date 2000-07-15
_audit_update_record 2008-08-01
_chemical_name_systematic 'Platinum silicon (6/5)'
_chemical_formula_structural 'Pt6 Si5'
_chemical_formula_sum 'Pt6 Si5'
_exptl_crystal_density_diffrn 13.38
_publ_section_title 'Zum Aufbau des Systems Platin-Silizium'
loop_
_citation_id
_citation_journal_full
_citation_year
_citation_journal_volume
_citation_page_first
_citation_page_last
_citation_journal_id_ASTM
primary 'Zeitschrift fuer Metallkunde' 1964 55 503 511 ZEMTAE
loop_
_publ_author_name
'Gohle, R.'
'Schubert, K.'
_cell_length_a 15.308
_cell_length_b 3.48
_cell_length_c 6.12
_cell_angle_alpha 90.
_cell_angle_beta 86.32
_cell_angle_gamma 90.
_cell_volume 325.35
_cell_formula_units_Z 2
_symmetry_space_group_name_H-M 'P 1 21/m 1'
_symmetry_Int_Tables_number 11
loop_
_symmetry_equiv_pos_site_id
_symmetry_equiv_pos_as_xyz
1 'x, -y+1/2, z'
2 '-x, -y, -z'
3 '-x, y+1/2, -z'
4 'x, y, z'
loop_
_atom_type_symbol
_atom_type_oxidation_number
Pt0+ 0
Si0+ 0
loop_
_atom_site_label
_atom_site_type_symbol
_atom_site_symmetry_multiplicity
_atom_site_Wyckoff_symbol
_atom_site_fract_x
_atom_site_fract_y
_atom_site_fract_z
_atom_site_B_iso_or_equiv
_atom_site_occupancy
_atom_site_attached_hydrogens
Pt1 Pt0+ 2 e 0.002 0.25 0.194 . 1. 0
Pt2 Pt0+ 2 e 0.178 0.25 0.287 . 1. 0
Pt3 Pt0+ 2 e 0.174 0.75 0.66 . 1. 0
Pt4 Pt0+ 2 e 0.281 0.75 0.995 . 1. 0
Pt5 Pt0+ 2 e 0.449 0.75 0.148 . 1. 0
Pt6 Pt0+ 2 e 0.424 0.25 0.527 . 1. 0
Si1 Si0+ 2 e 0.112 0.75 0.042 . 1. 0
Si2 Si0+ 2 e 0.057 0.25 0.542 . 1. 0
Si3 Si0+ 2 e 0.337 0.25 0.251 . 1. 0
Si4 Si0+ 2 e 0.287 0.25 0.682 . 1. 0
Si5 Si0+ 2 e 0.426 0.75 0.748 . 1. 0
#End of TTdata_43283-ICSD