
#(C) 2017 by FIZ Karlsruhe - Leibniz Institute for Information Infrastructure.  All rights reserved.
data_43322-ICSD
_database_code_ICSD 43322
_audit_creation_date 2000-07-15
_audit_update_record 2005-10-01
_chemical_name_systematic 'Molybdenum carbide (2/1) - alpha'
_chemical_formula_structural 'Mo2 C'
_chemical_formula_sum 'C1 Mo2'
_chemical_name_structure_type Fe2N-zeta
_exptl_crystal_density_diffrn 9.18
_publ_section_title
'The structure of dimolybdenum carbide by neutron diffraction technique'
loop_
_citation_id
_citation_journal_full
_citation_year
_citation_journal_volume
_citation_page_first
_citation_page_last
_citation_journal_id_ASTM
primary 'Acta Crystallographica (1,1948-23,1967)' 1963 16 202 205 ACCRA9
loop_
_publ_author_name
'Parthe, E.'
'Sadagopan, V.'
_cell_length_a 4.724
_cell_length_b 6.004
_cell_length_c 5.199
_cell_angle_alpha 90.
_cell_angle_beta 90.
_cell_angle_gamma 90.
_cell_volume 147.46
_cell_formula_units_Z 4
_symmetry_space_group_name_H-M 'P b c n'
_symmetry_Int_Tables_number 60
loop_
_symmetry_equiv_pos_site_id
_symmetry_equiv_pos_as_xyz
1 'x, -y, z+1/2'
2 '-x+1/2, y+1/2, z'
3 'x+1/2, y+1/2, -z+1/2'
4 '-x, -y, -z'
5 '-x, y, -z+1/2'
6 'x+1/2, -y+1/2, -z'
7 '-x+1/2, -y+1/2, z+1/2'
8 'x, y, z'
loop_
_atom_type_symbol
_atom_type_oxidation_number
Mo0+ 0
C0+ 0
loop_
_atom_site_label
_atom_site_type_symbol
_atom_site_symmetry_multiplicity
_atom_site_Wyckoff_symbol
_atom_site_fract_x
_atom_site_fract_y
_atom_site_fract_z
_atom_site_B_iso_or_equiv
_atom_site_occupancy
_atom_site_attached_hydrogens
Mo1 Mo0+ 8 d 0.25 0.125 0.083 0.5 1. 0
C1 C0+ 4 c 0 0.325 0.25 0.5 1. 0
#End of TTdata_43322-ICSD