
#(C) 2017 by FIZ Karlsruhe - Leibniz Institute for Information Infrastructure.  All rights reserved.
data_43355-ICSD
_database_code_ICSD 43355
_audit_creation_date 2000-07-15
_audit_update_record 2004-04-01
_chemical_name_systematic 'Titanium antimonide (3/1) - beta'
_chemical_formula_structural 'Ti3 Sb'
_chemical_formula_sum 'Sb1 Ti3'
_chemical_name_structure_type Mo5Si3
_exptl_crystal_density_diffrn 6.12
_publ_section_title

;
On the phase relationships in the titanium-antimony system. The crystal
structures of Ti3 Sb
;
loop_
_citation_id
_citation_journal_full
_citation_year
_citation_journal_volume
_citation_page_first
_citation_page_last
_citation_journal_id_ASTM
primary 'Acta Chemica Scandinavica (1-27,1973-42,1988)' 1962 16 1493 1510 ACSAA4
loop_
_publ_author_name
'Kjekshus, A.'
'Gronvold, F.'
'Thorbjornsen, T.'
_cell_length_a 10.465
_cell_length_b 10.465
_cell_length_c 5.2639
_cell_angle_alpha 90.
_cell_angle_beta 90.
_cell_angle_gamma 90.
_cell_volume 576.48
_cell_formula_units_Z 8
_symmetry_space_group_name_H-M 'I 4/m c m'
_symmetry_Int_Tables_number 140
_refine_ls_R_factor_all 0.116
loop_
_symmetry_equiv_pos_site_id
_symmetry_equiv_pos_as_xyz
1 'y, x, -z+1/2'
2 '-y, -x, -z+1/2'
3 '-y, x, -z'
4 'y, -x, -z'
5 'x, -y, -z+1/2'
6 '-x, y, -z+1/2'
7 'x, y, -z'
8 '-x, -y, -z'
9 '-y, -x, z+1/2'
10 'y, x, z+1/2'
11 'y, -x, z'
12 '-y, x, z'
13 '-x, y, z+1/2'
14 'x, -y, z+1/2'
15 '-x, -y, z'
16 'x, y, z'
17 'y+1/2, x+1/2, -z'
18 '-y+1/2, -x+1/2, -z'
19 '-y+1/2, x+1/2, -z+1/2'
20 'y+1/2, -x+1/2, -z+1/2'
21 'x+1/2, -y+1/2, -z'
22 '-x+1/2, y+1/2, -z'
23 'x+1/2, y+1/2, -z+1/2'
24 '-x+1/2, -y+1/2, -z+1/2'
25 '-y+1/2, -x+1/2, z'
26 'y+1/2, x+1/2, z'
27 'y+1/2, -x+1/2, z+1/2'
28 '-y+1/2, x+1/2, z+1/2'
29 '-x+1/2, y+1/2, z'
30 'x+1/2, -y+1/2, z'
31 '-x+1/2, -y+1/2, z+1/2'
32 'x+1/2, y+1/2, z+1/2'
loop_
_atom_type_symbol
_atom_type_oxidation_number
Ti0+ 0
Sb0+ 0
loop_
_atom_site_label
_atom_site_type_symbol
_atom_site_symmetry_multiplicity
_atom_site_Wyckoff_symbol
_atom_site_fract_x
_atom_site_fract_y
_atom_site_fract_z
_atom_site_B_iso_or_equiv
_atom_site_occupancy
_atom_site_attached_hydrogens
Ti1 Ti0+ 4 a 0 0 0.25 . 1. 0
Ti2 Ti0+ 4 b 0 0.5 0.25 . 1. 0
Ti3 Ti0+ 16 k 0.0766 0.2228 0 . 1. 0
Sb1 Sb0+ 8 h 0.1635 0.6635 0 . 1. 0
#End of TTdata_43355-ICSD