
data_43477-ICSD
_database_code_ICSD 43477
_audit_creation_date 2000-07-15
_audit_update_record 2014-08-01
_chemical_name_systematic 'Scandium aluminum carbide (1/3/3)'
_chemical_formula_structural 'Sc Al3 C3'
_chemical_formula_sum 'C3 Al3 Sc1'
_chemical_name_structure_type ScAl3C3
_exptl_crystal_density_diffrn 3.29
_cell_length_a 3.355(1)
_cell_length_b 3.355
_cell_length_c 16.7760(30)
_cell_angle_alpha 90.
_cell_angle_beta 90.
_cell_angle_gamma 120.
_cell_volume 163.53
_cell_formula_units_Z 2
_symmetry_space_group_name_H-M 'P 63 m c'
_symmetry_Int_Tables_number 186
_refine_ls_R_factor_all 0.031
loop_
_symmetry_equiv_pos_site_id
_symmetry_equiv_pos_as_xyz
1 '-x, -x+y, z+1/2'
2 'x-y, -y, z+1/2'
3 'y, x, z+1/2'
4 'x-y, x, z+1/2'
5 'y, -x+y, z+1/2'
6 '-x, -y, z+1/2'
7 'x, x-y, z'
8 '-x+y, y, z'
9 '-y, -x, z'
10 '-x+y, -x, z'
11 '-y, x-y, z'
12 'x, y, z'
loop_
_atom_type_symbol
_atom_type_oxidation_number
Sc0+ 0
Al0+ 0
C0+ 0
loop_
_atom_site_label
_atom_site_type_symbol
_atom_site_symmetry_multiplicity
_atom_site_Wyckoff_symbol
_atom_site_fract_x
_atom_site_fract_y
_atom_site_fract_z
_atom_site_B_iso_or_equiv
_atom_site_occupancy
_atom_site_attached_hydrogens
Sc1 Sc0+ 2 a 0 0 0 0.34(2) 1. 0
Al1 Al0+ 2 b 0.3333 0.6667 0.1297(2) 0.41(2) 1. 0
Al2 Al0+ 2 b 0.3333 0.6667 0.3706(2) 0.41(2) 1. 0
Al3 Al0+ 2 b 0.3333 0.6667 0.7582(2) 0.54(4) 1. 0
C1 C0+ 2 b 0.3333 0.6667 0.2504(9) 0.40(6) 1. 0
C2 C0+ 2 b 0.3333 0.6667 0.5848(4) 0.52(5) 1. 0
C3 C0+ 2 b 0.3333 0.6667 0.9103(5) 0.52(5) 1. 0
