
#(C) 2017 by FIZ Karlsruhe - Leibniz Institute for Information Infrastructure.  All rights reserved.
data_43503-ICSD
_database_code_ICSD 43503
_audit_creation_date 2000-07-15
_audit_update_record 2012-08-01
_chemical_name_systematic 'Rhodium bismuthide (1/2) - alpha'
_chemical_formula_structural 'Rh Bi2'
_chemical_formula_sum 'Bi2 Rh1'
_chemical_name_structure_type FeAsS-CoSb2
_exptl_crystal_density_diffrn 11.74
_publ_section_title

;
Structures of compounds in the M Sb2 group: Co Sb2, Rh Sb2, Ir Sb2 and alpha -
Rh Bi2
;
loop_
_citation_id
_citation_journal_full
_citation_year
_citation_journal_volume
_citation_page_first
_citation_page_last
_citation_journal_id_ASTM
primary Kristallografiya 1961 6 872 881 KRISAJ
loop_
_publ_author_name
'Zhdanov, G.S.'
'Kuz'min, R.N.'
_cell_length_a 6.96(2)
_cell_length_b 6.83(2)
_cell_length_c 7.01(2)
_cell_angle_alpha 90.
_cell_angle_beta 118.2
_cell_angle_gamma 90.
_cell_volume 293.68
_cell_formula_units_Z 4
_symmetry_space_group_name_H-M 'P 1 21/c 1'
_symmetry_Int_Tables_number 14
_refine_ls_R_factor_all 0.2
loop_
_symmetry_equiv_pos_site_id
_symmetry_equiv_pos_as_xyz
1 'x, -y+1/2, z+1/2'
2 '-x, -y, -z'
3 '-x, y+1/2, -z+1/2'
4 'x, y, z'
loop_
_atom_type_symbol
_atom_type_oxidation_number
Rh0+ 0
Bi0+ 0
loop_
_atom_site_label
_atom_site_type_symbol
_atom_site_symmetry_multiplicity
_atom_site_Wyckoff_symbol
_atom_site_fract_x
_atom_site_fract_y
_atom_site_fract_z
_atom_site_B_iso_or_equiv
_atom_site_occupancy
_atom_site_attached_hydrogens
Rh1 Rh0+ 4 e 0.27 0 0.28 . 1. 0
Bi1 Bi0+ 4 e 0.354 0.359 0.168 . 1. 0
Bi2 Bi0+ 4 e 0.162 0.638 0.368 . 1. 0
#End of TTdata_43503-ICSD