
data_43559-ICSD
_database_code_ICSD 43559
_audit_creation_date 2000-07-15
_audit_update_record 2012-08-01
_chemical_name_systematic 'Molybdenum(III) nitride - delta"'
_chemical_formula_structural 'Mo N'
_chemical_formula_sum 'Mo1 N1'
_exptl_crystal_density_diffrn 9.52
_publ_section_title 'The hexagonal nitrides of molybdenum'
loop_
_citation_id
_citation_journal_full
_citation_year
_citation_journal_volume
_citation_page_first
_citation_page_last
_citation_journal_id_ASTM
primary Kristallografiya 1961 6 43 48 KRISAJ
loop_
_publ_author_name
'Troitskaya, N.V.'
'Pinsker, Z.G.'
_cell_length_a 5.665
_cell_length_b 5.665
_cell_length_c 5.52
_cell_angle_alpha 90.
_cell_angle_beta 90.
_cell_angle_gamma 120.
_cell_volume 153.42
_cell_formula_units_Z 8
_symmetry_space_group_name_H-M 'P -3 1 m'
_symmetry_Int_Tables_number 162
_refine_ls_R_factor_all 0.18
loop_
_symmetry_equiv_pos_site_id
_symmetry_equiv_pos_as_xyz
1 '-x+y, y, -z'
2 'x, x-y, -z'
3 '-y, -x, -z'
4 'x-y, x, -z'
5 'y, -x+y, -z'
6 '-x, -y, -z'
7 'x-y, -y, z'
8 '-x, -x+y, z'
9 'y, x, z'
10 '-x+y, -x, z'
11 '-y, x-y, z'
12 'x, y, z'
loop_
_atom_type_symbol
_atom_type_oxidation_number
Mo3+ 3
N3- -3
loop_
_atom_site_label
_atom_site_type_symbol
_atom_site_symmetry_multiplicity
_atom_site_Wyckoff_symbol
_atom_site_fract_x
_atom_site_fract_y
_atom_site_fract_z
_atom_site_B_iso_or_equiv
_atom_site_occupancy
_atom_site_attached_hydrogens
Mo1 Mo3+ 2 e 0 0 0.25 . 1. 0
Mo2 Mo3+ 6 k 0.494 0 0.25 . 1. 0
N1 N3- 2 d 0.3333 0.6667 0.5 . 1. 0
N2 N3- 6 i 0.16667 0.33334 0 . 1. 0
