
#(C) 2017 by FIZ Karlsruhe - Leibniz Institute for Information Infrastructure.  All rights reserved.
data_43551-ICSD
_database_code_ICSD 43551
_audit_creation_date 2000-07-15
_chemical_name_systematic 'Iron phosphide (4/1)'
_chemical_formula_structural 'Fe4 P'
_chemical_formula_sum 'Fe4 P1'
_exptl_crystal_density_diffrn 6.79
_publ_section_title

;
Precipitation of phosphorus from alpha-iron and its effect on plastic
deformation
;
loop_
_citation_id
_citation_journal_full
_citation_year
_citation_journal_volume
_citation_page_first
_citation_page_last
_citation_journal_id_ASTM
primary 'Transactions of the American Society for Metals' 1961 53 569 589 TASEA7
loop_
_publ_author_name
'Hornbogen, E.'
_cell_length_a 3.59(5)
_cell_length_b 4.01(5)
_cell_length_c 4.32(5)
_cell_angle_alpha 90.
_cell_angle_beta 90.
_cell_angle_gamma 90.
_cell_volume 62.19
_cell_formula_units_Z 1
_symmetry_space_group_name_H-M 'P m m m'
_symmetry_Int_Tables_number 47
loop_
_symmetry_equiv_pos_site_id
_symmetry_equiv_pos_as_xyz
1 'x, -y, z'
2 '-x, y, z'
3 'x, y, -z'
4 '-x, -y, -z'
5 '-x, y, -z'
6 'x, -y, -z'
7 '-x, -y, z'
8 'x, y, z'
loop_
_atom_type_symbol
_atom_type_oxidation_number
Fe0+ 0
P0+ 0
loop_
_atom_site_label
_atom_site_type_symbol
_atom_site_symmetry_multiplicity
_atom_site_Wyckoff_symbol
_atom_site_fract_x
_atom_site_fract_y
_atom_site_fract_z
_atom_site_B_iso_or_equiv
_atom_site_occupancy
_atom_site_attached_hydrogens
Fe1 Fe0+ 1 a 0 0 0 . 1. 0
Fe2 Fe0+ 1 d 0.5 0 0.5 . 1. 0
Fe3 Fe0+ 1 f 0.5 0.5 0 . 1. 0
Fe4 Fe0+ 1 g 0 0.5 0.5 . 1. 0
P1 P0+ 1 h 0.5 0.5 0.5 . 1. 0
#End of TTdata_43551-ICSD