
#(C) 2017 by FIZ Karlsruhe - Leibniz Institute for Information Infrastructure.  All rights reserved.
data_437-ICSD
_database_code_ICSD 437
_audit_creation_date 1980-01-01
_audit_update_record 2009-08-01
_chemical_name_systematic 'Ammonium tribromostannate(II) hydrate'
_chemical_formula_structural '(N H4) (Sn Br3) (H2 O)'
_chemical_formula_sum 'H6 Br3 N1 O1 Sn1'
_exptl_crystal_density_diffrn 3.28
_publ_section_title 'On the crystal structure of N H4 Sn Br3 H2 O'
loop_
_citation_id
_citation_journal_full
_citation_year
_citation_journal_volume
_citation_page_first
_citation_page_last
_citation_journal_id_ASTM
primary 'Acta Chemica Scandinavica, Series A: (28,1974-)' 1976 30 229 229 ACAPCT
loop_
_publ_author_name
'Andersson, J.'
_cell_length_a 9.4476(8)
_cell_length_b 4.4637(5)
_cell_length_c 9.6242(7)
_cell_angle_alpha 90.
_cell_angle_beta 100.714(7)
_cell_angle_gamma 90.
_cell_volume 398.79
_cell_formula_units_Z 2
_symmetry_space_group_name_H-M 'P 1 21/m 1'
_symmetry_Int_Tables_number 11
loop_
_symmetry_equiv_pos_site_id
_symmetry_equiv_pos_as_xyz
1 'x, -y+1/2, z'
2 '-x, -y, -z'
3 '-x, y+1/2, -z'
4 'x, y, z'
loop_
_atom_type_symbol
_atom_type_oxidation_number
Sn2+ 2
Br1- -1
N3- -3
O2- -2
H1+ 1
loop_
_atom_site_label
_atom_site_type_symbol
_atom_site_symmetry_multiplicity
_atom_site_Wyckoff_symbol
_atom_site_fract_x
_atom_site_fract_y
_atom_site_fract_z
_atom_site_B_iso_or_equiv
_atom_site_occupancy
_atom_site_attached_hydrogens
Sn1 Sn2+ 2 e 0.146 0.25 0.131 . 1. 0
Br1 Br1- 2 e 0.359 0.25 0.349 . 1. 0
Br2 Br1- 2 e 0.99 0.25 0.725 . 1. 0
Br3 Br1- 2 e 0.699 0.25 0.996 . 1. 0
N1 N3- 2 e 0.382 0.25 0.731 . 1. 0
O1 O2- 2 e 0.765 0.25 0.394 . 1. 0
#End of TTdata_437-ICSD