
data_43875-ICSD
_database_code_ICSD 43875
_audit_creation_date 2000-07-15
_chemical_name_systematic 'Calcium arsenide (1/1)'
_chemical_formula_structural 'Ca As'
_chemical_formula_sum 'As1 Ca1'
_chemical_name_structure_type Na2O2
_exptl_crystal_density_diffrn 3.63
_cell_length_a 7.844(7)
_cell_length_b 7.844
_cell_length_c 5.917(4)
_cell_angle_alpha 90.
_cell_angle_beta 90.
_cell_angle_gamma 120.
_cell_volume 315.29
_cell_formula_units_Z 6
_symmetry_space_group_name_H-M 'P -6 2 m'
_symmetry_Int_Tables_number 189
_refine_ls_R_factor_all 0.04
loop_
_symmetry_equiv_pos_site_id
_symmetry_equiv_pos_as_xyz
1 '-x, -x+y, -z'
2 'x-y, -y, -z'
3 'y, x, -z'
4 '-x, -x+y, z'
5 'x-y, -y, z'
6 'y, x, z'
7 '-x+y, -x, -z'
8 '-y, x-y, -z'
9 'x, y, -z'
10 '-x+y, -x, z'
11 '-y, x-y, z'
12 'x, y, z'
loop_
_atom_type_symbol
_atom_type_oxidation_number
Ca0+ 0
As0+ 0
loop_
_atom_site_label
_atom_site_type_symbol
_atom_site_symmetry_multiplicity
_atom_site_Wyckoff_symbol
_atom_site_fract_x
_atom_site_fract_y
_atom_site_fract_z
_atom_site_B_iso_or_equiv
_atom_site_occupancy
_atom_site_attached_hydrogens
Ca1 Ca0+ 3 f 0.315(2) 0 0 . 1. 0
Ca2 Ca0+ 3 g 0.649(2) 0 0.5 . 1. 0
As1 As0+ 2 e 0 0 0.2884(8) . 1. 0
As2 As0+ 4 h 0.3333 0.6667 0.2166(4) . 1. 0
loop_
_atom_site_aniso_label
_atom_site_aniso_type_symbol
_atom_site_aniso_beta_11
_atom_site_aniso_beta_22
_atom_site_aniso_beta_33
_atom_site_aniso_beta_12
_atom_site_aniso_beta_13
_atom_site_aniso_beta_23
Ca1 Ca0+ 0.0109(28) 0.0116(23) 0.0064(11) 0.0058 0 0
Ca2 Ca0+ 0.0071(26) 0.0088(27) 0.0072(11) 0.0044 0 0
As1 As0+ 0.0122(16) 0.0122 0.0053(6) 0.0061 0 0
As2 As0+ 0.0073(7) 0.0073 0.0045(4) 0.00365 0 0
