
data_43950-ICSD
_database_code_ICSD 43950
_audit_creation_date 2000-07-15
_chemical_name_systematic 'Gallium arsenide (1/1) - HP'
_chemical_formula_structural 'Ga As'
_chemical_formula_sum 'As1 Ga1'
_exptl_crystal_density_diffrn 7.74
_cell_measurement_pressure 28100000.
_cell_length_a 4.92(1)
_cell_length_b 4.79(1)
_cell_length_c 2.635(6)
_cell_angle_alpha 90.
_cell_angle_beta 90.
_cell_angle_gamma 90.
_cell_volume 62.1
_cell_formula_units_Z 2
_symmetry_space_group_name_H-M 'I m m 2'
_symmetry_Int_Tables_number 44
_refine_ls_R_factor_all 0.177
loop_
_symmetry_equiv_pos_site_id
_symmetry_equiv_pos_as_xyz
1 'x, -y, z'
2 '-x, y, z'
3 '-x, -y, z'
4 'x, y, z'
5 'x+1/2, -y+1/2, z+1/2'
6 '-x+1/2, y+1/2, z+1/2'
7 '-x+1/2, -y+1/2, z+1/2'
8 'x+1/2, y+1/2, z+1/2'
loop_
_atom_type_symbol
_atom_type_oxidation_number
Ga3+ 3
As3- -3
loop_
_atom_site_label
_atom_site_type_symbol
_atom_site_symmetry_multiplicity
_atom_site_Wyckoff_symbol
_atom_site_fract_x
_atom_site_fract_y
_atom_site_fract_z
_atom_site_B_iso_or_equiv
_atom_site_occupancy
_atom_site_attached_hydrogens
Ga1 Ga3+ 2 b 0 0.5 0.425 . 1. 0
As1 As3- 2 a 0 0 0 . 1. 0
