
#(C) 2017 by FIZ Karlsruhe - Leibniz Institute for Information Infrastructure.  All rights reserved.
data_44446-ICSD
_database_code_ICSD 44446
_audit_creation_date 2000-12-16
_audit_update_record 2006-04-01
_chemical_name_systematic 'Manganese(IV) boride - eta'
_chemical_formula_structural 'Mn3 B4'
_chemical_formula_sum 'B4 Mn3'
_chemical_name_structure_type Cr3B4
_exptl_crystal_density_diffrn 5.99
_publ_section_title 'The borides of manganese'
loop_
_citation_id
_citation_journal_full
_citation_year
_citation_journal_volume
_citation_page_first
_citation_page_last
_citation_journal_id_ASTM
primary 'Acta Chemica Scandinavica (1-27,1973-42,1988)' 1950 4 146 159 ACSAA4
loop_
_publ_author_name
'Kiessling, R.'
_cell_length_a 3.032
_cell_length_b 12.86
_cell_length_c 2.96
_cell_angle_alpha 90.
_cell_angle_beta 90.
_cell_angle_gamma 90.
_cell_volume 115.41
_cell_formula_units_Z 2
_symmetry_space_group_name_H-M 'I m m m'
_symmetry_Int_Tables_number 71
loop_
_symmetry_equiv_pos_site_id
_symmetry_equiv_pos_as_xyz
1 'x, y, -z'
2 'x, -y, z'
3 '-x, y, z'
4 '-x, -y, -z'
5 '-x, -y, z'
6 '-x, y, -z'
7 'x, -y, -z'
8 'x, y, z'
9 'x+1/2, y+1/2, -z+1/2'
10 'x+1/2, -y+1/2, z+1/2'
11 '-x+1/2, y+1/2, z+1/2'
12 '-x+1/2, -y+1/2, -z+1/2'
13 '-x+1/2, -y+1/2, z+1/2'
14 '-x+1/2, y+1/2, -z+1/2'
15 'x+1/2, -y+1/2, -z+1/2'
16 'x+1/2, y+1/2, z+1/2'
loop_
_atom_type_symbol
_atom_type_oxidation_number
Mn4+ 4
B3- -3
loop_
_atom_site_label
_atom_site_type_symbol
_atom_site_symmetry_multiplicity
_atom_site_Wyckoff_symbol
_atom_site_fract_x
_atom_site_fract_y
_atom_site_fract_z
_atom_site_B_iso_or_equiv
_atom_site_occupancy
_atom_site_attached_hydrogens
Mn1 Mn4+ 2 c 0.5 0.5 0 . 1. 0
Mn2 Mn4+ 4 g 0 0.186 0 . 1. 0
B1 B3- 4 g 0 0.371 0 . 1. 0
B2 B3- 4 h 0 0.443 0.5 . 1. 0
#End of TTdata_44446-ICSD