
#(C) 2017 by FIZ Karlsruhe - Leibniz Institute for Information Infrastructure.  All rights reserved.
data_44751-ICSD
_database_code_ICSD 44751
_audit_creation_date 2000-12-16
_chemical_name_systematic 'Iron selenide (1/2)'
_chemical_formula_structural 'Fe Se2'
_chemical_formula_sum 'Fe1 Se2'
_chemical_name_structure_type Marcasite-FeS2(oP6)
_chemical_name_mineral Ferroselite
_exptl_crystal_density_diffrn 7.21
_publ_section_title 'A new mineral - ferroselite'
loop_
_citation_id
_citation_journal_full
_citation_year
_citation_journal_volume
_citation_page_first
_citation_page_last
_citation_journal_id_ASTM
primary 'Doklady Akademii Nauk SSSR' 1955 105 812 813 DANKAS
loop_
_publ_author_name
'Bur'yanova, E.Z.'
'Komkov, A.I.'
_cell_length_a 3.58
_cell_length_b 4.79
_cell_length_c 5.74
_cell_angle_alpha 90.
_cell_angle_beta 90.
_cell_angle_gamma 90.
_cell_volume 98.43
_cell_formula_units_Z 2
_symmetry_space_group_name_H-M 'P m n n'
_symmetry_Int_Tables_number 58
loop_
_symmetry_equiv_pos_site_id
_symmetry_equiv_pos_as_xyz
1 'x+1/2, -y+1/2, z+1/2'
2 'x+1/2, y+1/2, -z+1/2'
3 '-x, y, z'
4 '-x, -y, -z'
5 '-x+1/2, y+1/2, -z+1/2'
6 '-x+1/2, -y+1/2, z+1/2'
7 'x, -y, -z'
8 'x, y, z'
loop_
_atom_type_symbol
_atom_type_oxidation_number
Fe0+ 0
Se0+ 0
loop_
_atom_site_label
_atom_site_type_symbol
_atom_site_symmetry_multiplicity
_atom_site_Wyckoff_symbol
_atom_site_fract_x
_atom_site_fract_y
_atom_site_fract_z
_atom_site_B_iso_or_equiv
_atom_site_occupancy
_atom_site_attached_hydrogens
Fe1 Fe0+ 2 a 0 0 0 . 1. 0
Se1 Se0+ 4 g 0 0.21 0.37 . 1. 0
#End of TTdata_44751-ICSD