
data_44887-ICSD
_database_code_ICSD 44887
_audit_creation_date 2000-12-16
_audit_update_record 2011-08-01
_chemical_name_systematic 'Zinc tetraselenodigallate'
_chemical_formula_structural 'Zn (Ga2 Se4)'
_chemical_formula_sum 'Ga2 Se4 Zn1'
_chemical_name_structure_type Al2CdS4
_exptl_crystal_density_diffrn 5.21
_cell_length_a 5.496
_cell_length_b 5.496
_cell_length_c 10.99
_cell_angle_alpha 90.
_cell_angle_beta 90.
_cell_angle_gamma 90.
_cell_volume 331.96
_cell_formula_units_Z 2
_symmetry_space_group_name_H-M 'I -4'
_symmetry_Int_Tables_number 82
loop_
_symmetry_equiv_pos_site_id
_symmetry_equiv_pos_as_xyz
1 '-y, x, -z'
2 'y, -x, -z'
3 '-x, -y, z'
4 'x, y, z'
5 '-y+1/2, x+1/2, -z+1/2'
6 'y+1/2, -x+1/2, -z+1/2'
7 '-x+1/2, -y+1/2, z+1/2'
8 'x+1/2, y+1/2, z+1/2'
loop_
_atom_type_symbol
_atom_type_oxidation_number
Zn2+ 2
Ga3+ 3
Se2- -2
loop_
_atom_site_label
_atom_site_type_symbol
_atom_site_symmetry_multiplicity
_atom_site_Wyckoff_symbol
_atom_site_fract_x
_atom_site_fract_y
_atom_site_fract_z
_atom_site_B_iso_or_equiv
_atom_site_occupancy
_atom_site_attached_hydrogens
Zn1 Zn2+ 2 a 0 0 0 . 1. 0
Ga1 Ga3+ 2 b 0 0 0.5 . 1. 0
Ga2 Ga3+ 2 c 0 0.5 0.25 . 1. 0
Se1 Se2- 8 g 0.25 0.25 0.125 . 1. 0
