
#(C) 2017 by FIZ Karlsruhe - Leibniz Institute for Information Infrastructure.  All rights reserved.
data_45881-ICSD
_database_code_ICSD 45881
_audit_creation_date 2002-04-01
_audit_update_record 2007-08-01
_chemical_name_systematic 'Lead bromide chloride'
_chemical_formula_structural 'Pb Br Cl'
_chemical_formula_sum 'Br1 Cl1 Pb1'
_chemical_name_structure_type PbCl2
_exptl_crystal_density_diffrn 6.55
_publ_section_title 'Studies in the lead chloride-lead bromide system'
loop_
_citation_id
_citation_journal_full
_citation_year
_citation_journal_volume
_citation_page_first
_citation_page_last
_citation_journal_id_ASTM
primary 'Journal of the American Chemical Society' 1949 71 3709 3720 JACSAT
loop_
_publ_author_name
'Calingaert, G.'
'Lamb, F.W.'
'Meyer, F.'
_cell_length_a 7.7949
_cell_length_b 9.1985
_cell_length_c 4.5616
_cell_angle_alpha 90.
_cell_angle_beta 90.
_cell_angle_gamma 90.
_cell_volume 327.07
_cell_formula_units_Z 4
_symmetry_space_group_name_H-M 'P n a m'
_symmetry_Int_Tables_number 62
loop_
_symmetry_equiv_pos_site_id
_symmetry_equiv_pos_as_xyz
1 'x+1/2, -y+1/2, z'
2 'x, y, -z+1/2'
3 '-x+1/2, y+1/2, z+1/2'
4 '-x, -y, -z'
5 '-x+1/2, y+1/2, -z'
6 '-x, -y, z+1/2'
7 'x+1/2, -y+1/2, -z+1/2'
8 'x, y, z'
loop_
_atom_type_symbol
_atom_type_oxidation_number
Pb2+ 2
Cl1- -1
Br1- -1
loop_
_atom_site_label
_atom_site_type_symbol
_atom_site_symmetry_multiplicity
_atom_site_Wyckoff_symbol
_atom_site_fract_x
_atom_site_fract_y
_atom_site_fract_z
_atom_site_B_iso_or_equiv
_atom_site_occupancy
_atom_site_attached_hydrogens
Pb1 Pb2+ 4 c 0.254 0.1 0.25 . 1. 0
Cl1 Cl1- 4 c 0.361 0.426 0.25 . 1. 0
Br1 Br1- 4 c 0.023 0.337 0.75 . 1. 0
#End of TTdata_45881-ICSD