
#(C) 2017 by FIZ Karlsruhe - Leibniz Institute for Information Infrastructure.  All rights reserved.
data_47128-ICSD
_database_code_ICSD 47128
_audit_creation_date 1985-05-09
_audit_update_record 2009-02-01
_chemical_name_systematic 'Dirubidium tetrachlorochromate(II)'
_chemical_formula_structural 'Rb2 (Cr Cl4)'
_chemical_formula_sum 'Cl4 Cr1 Rb2'
_chemical_name_structure_type Rb2CuCl4
_exptl_crystal_density_diffrn 2.91
_publ_section_title

;
Neutron diffraction study of the crystal and magnetic structure of Rb2 Cr Cl4:
a two-dimensional ionic ferromagnet
;
loop_
_citation_id
_citation_journal_full
_citation_year
_citation_journal_volume
_citation_page_first
_citation_page_last
_citation_journal_id_ASTM
primary 'Journal of Physics C' 1983 16 5959 5968 JPSOAW
loop_
_publ_author_name
'Janke, E.'
'Hutchings, M.T.'
'Day, P.'
'Walker, P.J.'
_cell_length_a 15.77(4)
_cell_length_b 7.272(18)
_cell_length_c 7.272(18)
_cell_angle_alpha 90.
_cell_angle_beta 90.
_cell_angle_gamma 90.
_cell_volume 833.95
_cell_formula_units_Z 4
_symmetry_space_group_name_H-M 'C m c a'
_symmetry_Int_Tables_number 64
_refine_ls_R_factor_all 0.0864
loop_
_symmetry_equiv_pos_site_id
_symmetry_equiv_pos_as_xyz
1 '-x, -y+1/2, z+1/2'
2 '-x, y+1/2, -z+1/2'
3 '-x, y, z'
4 '-x, -y, -z'
5 'x, y+1/2, -z+1/2'
6 'x, -y+1/2, z+1/2'
7 'x, -y, -z'
8 'x, y, z'
9 '-x+1/2, -y, z+1/2'
10 '-x+1/2, y, -z+1/2'
11 '-x+1/2, y+1/2, z'
12 '-x+1/2, -y+1/2, -z'
13 'x+1/2, y, -z+1/2'
14 'x+1/2, -y, z+1/2'
15 'x+1/2, -y+1/2, -z'
16 'x+1/2, y+1/2, z'
loop_
_atom_type_symbol
_atom_type_oxidation_number
Cr2+ 2
Rb1+ 1
Cl1- -1
loop_
_atom_site_label
_atom_site_type_symbol
_atom_site_symmetry_multiplicity
_atom_site_Wyckoff_symbol
_atom_site_fract_x
_atom_site_fract_y
_atom_site_fract_z
_atom_site_B_iso_or_equiv
_atom_site_occupancy
_atom_site_attached_hydrogens
Cr1 Cr2+ 4 a 0 0 0 1.69(12) 1. 0
Rb1 Rb1+ 8 d 0.3616(12) 0 0 2.96(9) 1. 0
Cl1 Cl1- 8 d 0.1530(5) 0 0 3.25(7) 1. 0
Cl2 Cl1- 8 e 0.25 0.2679(1) 0.25 1.55(4) 1. 0
#End of TTdata_47128-ICSD