
data_47173-ICSD
_database_code_ICSD 47173
_audit_creation_date 1985-06-13
_chemical_name_systematic 'Potassium bromate'
_chemical_formula_structural 'K Br O3'
_chemical_formula_sum 'Br1 K1 O3'
_chemical_name_structure_type FeBiO3
_exptl_crystal_density_diffrn 3.26
_cell_length_a 6.011(1)
_cell_length_b 6.011(1)
_cell_length_c 8.152(2)
_cell_angle_alpha 90.
_cell_angle_beta 90.
_cell_angle_gamma 120.
_cell_volume 255.09
_cell_formula_units_Z 3
_symmetry_space_group_name_H-M 'R 3 m H'
_symmetry_Int_Tables_number 160
_refine_ls_R_factor_all 0.01
loop_
_symmetry_equiv_pos_site_id
_symmetry_equiv_pos_as_xyz
1 '-x+y, y, z'
2 'x, x-y, z'
3 '-y, -x, z'
4 '-x+y, -x, z'
5 '-y, x-y, z'
6 'x, y, z'
7 '-x+y+2/3, y+1/3, z+1/3'
8 'x+2/3, x-y+1/3, z+1/3'
9 '-y+2/3, -x+1/3, z+1/3'
10 '-x+y+2/3, -x+1/3, z+1/3'
11 '-y+2/3, x-y+1/3, z+1/3'
12 'x+2/3, y+1/3, z+1/3'
13 '-x+y+1/3, y+2/3, z+2/3'
14 'x+1/3, x-y+2/3, z+2/3'
15 '-y+1/3, -x+2/3, z+2/3'
16 '-x+y+1/3, -x+2/3, z+2/3'
17 '-y+1/3, x-y+2/3, z+2/3'
18 'x+1/3, y+2/3, z+2/3'
loop_
_atom_type_symbol
_atom_type_oxidation_number
Br5+ 5
K1+ 1
O2- -2
loop_
_atom_site_label
_atom_site_type_symbol
_atom_site_symmetry_multiplicity
_atom_site_Wyckoff_symbol
_atom_site_fract_x
_atom_site_fract_y
_atom_site_fract_z
_atom_site_B_iso_or_equiv
_atom_site_occupancy
_atom_site_attached_hydrogens
Br1 Br5+ 3 a 0 0 0.4827(3) . 1. 0
K1 K1+ 3 a 0 0 0 . 1. 0
O1 O2- 9 b 0.14456(15) -.14456(15) 0.4002(5) . 1. 0
