
#(C) 2017 by FIZ Karlsruhe - Leibniz Institute for Information Infrastructure.  All rights reserved.
data_48014-ICSD
_database_code_ICSD 48014
_audit_creation_date 1980-01-01
_audit_update_record 2012-02-01
_chemical_name_systematic 'Sodium dicopper hydroxide bis(sulfate(VI)) hydrate'
_chemical_formula_structural 'Na Cu2 (O H) (S O4)2 (H2 O)'
_chemical_formula_sum 'H3 Cu2 Na1 O10 S2'
_chemical_name_structure_type NaCu2OH(SO4)2H2O
_chemical_name_mineral Natrochalcite
_exptl_crystal_density_diffrn 3.56
_publ_section_title

;
The crystal structure of natrochalcite Na Cu2 (O H) (S O4)2 (H2 O)= Na (S O4)2
(Cu2, O H, H2 O)
;
loop_
_citation_id
_citation_journal_full
_citation_year
_citation_journal_volume
_citation_page_first
_citation_page_last
_citation_journal_id_ASTM
primary 'Soviet Physics, Doklady (see: Doklady Akademii Nauk SSR)' 1958 3 1093
1096 SPHDA9
loop_
_publ_author_name
'Rumanova, I.M.'
'Volodina, G.F.'
_cell_length_a 8.75
_cell_length_b 6.16
_cell_length_c 7.44
_cell_angle_alpha 90.
_cell_angle_beta 118.67
_cell_angle_gamma 90.
_cell_volume 351.85
_cell_formula_units_Z 2
_symmetry_space_group_name_H-M 'C 1 2/m 1'
_symmetry_Int_Tables_number 12
_refine_ls_R_factor_all 0.139
loop_
_symmetry_equiv_pos_site_id
_symmetry_equiv_pos_as_xyz
1 '-x, y, -z'
2 '-x, -y, -z'
3 'x, -y, z'
4 'x, y, z'
5 '-x+1/2, y+1/2, -z'
6 '-x+1/2, -y+1/2, -z'
7 'x+1/2, -y+1/2, z'
8 'x+1/2, y+1/2, z'
loop_
_atom_type_symbol
_atom_type_oxidation_number
Cu2+ 2
Na1+ 1
S6+ 6
O2- -2
H1+ 1
loop_
_atom_site_label
_atom_site_type_symbol
_atom_site_symmetry_multiplicity
_atom_site_Wyckoff_symbol
_atom_site_fract_x
_atom_site_fract_y
_atom_site_fract_z
_atom_site_B_iso_or_equiv
_atom_site_occupancy
_atom_site_attached_hydrogens
Cu1 Cu2+ 4 e 0.25 0.25 0 . 1. 0
Na1 Na1+ 2 d 0 0.5 0.5 . 1. 0
S1 S6+ 4 i 0.09 0 0.3 . 1. 0
O1 O2- 4 i 0.192 0 0.191 . 1. 0
O2 O2- 4 i 0.207 0 0.518 . 1. 0
O3 O2- 8 j -.017 0.2 0.25 . 1. 0
O4 O2- 4 i 0.157 0.5 0.074 . 1. 0
#End of TTdata_48014-ICSD