
#(C) 2017 by FIZ Karlsruhe - Leibniz Institute for Information Infrastructure.  All rights reserved.
data_48152-ICSD
_database_code_ICSD 48152
_audit_creation_date 1986-08-05
_audit_update_record 2012-02-01
_chemical_name_systematic 'Dithallium tin(IV) sulfide'
_chemical_formula_structural 'Tl2 Sn S3'
_chemical_formula_sum 'S3 Sn1 Tl2'
_chemical_name_structure_type SnTl2S3
_exptl_crystal_density_diffrn 6.37
_publ_section_title 'Tl2 Sn S3 - ein Thiostannat mit (SnS3(2-)) Ketten'
loop_
_citation_id
_citation_journal_full
_citation_year
_citation_journal_volume
_citation_page_first
_citation_page_last
_citation_journal_id_ASTM
primary 'Monatshefte fuer Chemie' 1984 115 1133 1142 MOCMB7
loop_
_publ_author_name
'Klepp, K.O.'
_cell_length_a 23.03(1)
_cell_length_b 3.834(1)
_cell_length_c 7.379(3)
_cell_angle_alpha 90.
_cell_angle_beta 94.07(5)
_cell_angle_gamma 90.
_cell_volume 649.9
_cell_formula_units_Z 4
_symmetry_space_group_name_H-M 'C 1 2/m 1'
_symmetry_Int_Tables_number 12
_refine_ls_R_factor_all 0.127
loop_
_symmetry_equiv_pos_site_id
_symmetry_equiv_pos_as_xyz
1 '-x, y, -z'
2 '-x, -y, -z'
3 'x, -y, z'
4 'x, y, z'
5 '-x+1/2, y+1/2, -z'
6 '-x+1/2, -y+1/2, -z'
7 'x+1/2, -y+1/2, z'
8 'x+1/2, y+1/2, z'
loop_
_atom_type_symbol
_atom_type_oxidation_number
Tl1+ 1
Sn4+ 4
S2- -2
loop_
_atom_site_label
_atom_site_type_symbol
_atom_site_symmetry_multiplicity
_atom_site_Wyckoff_symbol
_atom_site_fract_x
_atom_site_fract_y
_atom_site_fract_z
_atom_site_B_iso_or_equiv
_atom_site_occupancy
_atom_site_attached_hydrogens
Tl1 Tl1+ 4 i 0.3364(1) 0 0.2125(2) . 1. 0
Tl2 Tl1+ 4 i 0.0059(1) 0.5 0.2525(3) . 1. 0
Sn1 Sn4+ 4 i 0.1491(1) 0 0.2812(2) . 1. 0
S1 S2- 4 i 0.0870(3) 0 0.0116(9) . 1. 0
S2 S2- 4 i 0.0894(4) 0 0.528(1) . 1. 0
S3 S2- 4 i 0.2141(4) 0.5 0.288(1) . 1. 0
loop_
_atom_site_aniso_label
_atom_site_aniso_type_symbol
_atom_site_aniso_U_11
_atom_site_aniso_U_22
_atom_site_aniso_U_33
_atom_site_aniso_U_12
_atom_site_aniso_U_13
_atom_site_aniso_U_23
Tl1 Tl1+ 0.040(1) 0.023(1) 0.031(1) 0 0.0044(6) 0
Tl2 Tl1+ 0.044(1) 0.028(1) 0.069(1) 0 0.0052(8) 0
Sn1 Sn4+ 0.031(1) 0.009(1) 0.014(1) 0 0.0008(7) 0
S1 S2- 0.039(4) 0.019(4) 0.015(3) 0 0.003(3) 0
S2 S2- 0.037(4) 0.023(4) 0.019(3) 0 0.005(3) 0
S3 S2- 0.033(4) 0.020(4) 0.038(4) 0 -.004(3) 0
#End of TTdata_48152-ICSD