
#(C) 2017 by FIZ Karlsruhe - Leibniz Institute for Information Infrastructure.  All rights reserved.
data_491-ICSD
_database_code_ICSD 491
_audit_creation_date 1980-01-01
_audit_update_record 2012-08-01
_chemical_name_systematic 'Potassium chromium oxide (2/8/16)'
_chemical_formula_structural 'K2 Cr8 O16'
_chemical_formula_sum 'Cr8 K2 O16'
_chemical_name_structure_type Ba2Mn8O16
_exptl_crystal_density_diffrn 4.44
_publ_section_title 'A new compound K2 Cr8 O16 with hollandite type structure'
loop_
_citation_id
_citation_journal_full
_citation_year
_citation_journal_volume
_citation_page_first
_citation_page_last
_citation_journal_id_ASTM
primary 'Materials Research Bulletin' 1976 11 609 614 MRBUAC
loop_
_publ_author_name
'Endo, T.'
'Kume, S.'
'Kinomura, N.'
'Koizumi, M.'
_cell_length_a 13.82
_cell_length_b 2.941
_cell_length_c 9.772
_cell_angle_alpha 90.
_cell_angle_beta 135.
_cell_angle_gamma 90.
_cell_volume 280.85
_cell_formula_units_Z 1
_symmetry_space_group_name_H-M 'C 1 2/m 1'
_symmetry_Int_Tables_number 12
_refine_ls_R_factor_all 0.058
loop_
_symmetry_equiv_pos_site_id
_symmetry_equiv_pos_as_xyz
1 '-x, y, -z'
2 '-x, -y, -z'
3 'x, -y, z'
4 'x, y, z'
5 '-x+1/2, y+1/2, -z'
6 '-x+1/2, -y+1/2, -z'
7 'x+1/2, -y+1/2, z'
8 'x+1/2, y+1/2, z'
loop_
_atom_type_symbol
_atom_type_oxidation_number
Cr3+ 3.75
K1+ 1
O2- -2
loop_
_atom_site_label
_atom_site_type_symbol
_atom_site_symmetry_multiplicity
_atom_site_Wyckoff_symbol
_atom_site_fract_x
_atom_site_fract_y
_atom_site_fract_z
_atom_site_B_iso_or_equiv
_atom_site_occupancy
_atom_site_attached_hydrogens
Cr1 Cr3+ 4 i 0.1648 0 -.1831 . 1. 0
Cr2 Cr3+ 4 i 0.3481 0 0.5129 . 1. 0
K1 K1+ 2 b 0 0.5 0 . 1. 0
O1 O2- 4 i 0.2041 0 0.049 . 1. 0
O2 O2- 4 i 0.1524 0 0.3545 . 1. 0
O3 O2- 4 i 0.1629 0 -.3796 . 1. 0
O4 O2- 4 i 0.5419 0 0.7037 . 1. 0
loop_
_atom_site_aniso_label
_atom_site_aniso_type_symbol
_atom_site_aniso_beta_11
_atom_site_aniso_beta_22
_atom_site_aniso_beta_33
_atom_site_aniso_beta_12
_atom_site_aniso_beta_13
_atom_site_aniso_beta_23
Cr1 Cr3+ 0.0006 0.0277 0.0009 0 0.0007 0
Cr2 Cr3+ 0.0004 0.0271 0.0007 0 0.0005 0
K1 K1+ 0.0028 0.0511 0.0065 0 0.0034 0
O1 O2- 0.0008 0.0526 0.0029 0 0.0014 0
O2 O2- 0.0021 0.0698 0.0045 0 0.0028 0
O3 O2- 0.0021 0.0442 0.0007 0 0.0012 0
O4 O2- 0.0006 0.0529 0.0039 0 0.0013 0
#End of TTdata_491-ICSD