
data_49753-ICSD
_database_code_ICSD 49753
_audit_creation_date 1986-04-14
_audit_update_record 2007-08-01
_chemical_name_systematic 'Rubidium silver oxide'
_chemical_formula_structural 'Rb Ag O'
_chemical_formula_sum 'Ag1 O1 Rb1'
_chemical_name_structure_type LiCuO(I4-2m)
_exptl_crystal_density_diffrn 4.72
_cell_length_a 10.086(1)
_cell_length_b 10.086(1)
_cell_length_c 5.792(1)
_cell_angle_alpha 90.
_cell_angle_beta 90.
_cell_angle_gamma 90.
_cell_volume 589.21
_cell_formula_units_Z 8
_symmetry_space_group_name_H-M 'I -4 m 2'
_symmetry_Int_Tables_number 119
_refine_ls_R_factor_all 0.078
loop_
_symmetry_equiv_pos_site_id
_symmetry_equiv_pos_as_xyz
1 'y, x, -z'
2 '-y, -x, -z'
3 'y, -x, -z'
4 '-y, x, -z'
5 'x, -y, z'
6 '-x, y, z'
7 '-x, -y, z'
8 'x, y, z'
9 'y+1/2, x+1/2, -z+1/2'
10 '-y+1/2, -x+1/2, -z+1/2'
11 'y+1/2, -x+1/2, -z+1/2'
12 '-y+1/2, x+1/2, -z+1/2'
13 'x+1/2, -y+1/2, z+1/2'
14 '-x+1/2, y+1/2, z+1/2'
15 '-x+1/2, -y+1/2, z+1/2'
16 'x+1/2, y+1/2, z+1/2'
loop_
_atom_type_symbol
_atom_type_oxidation_number
Ag1+ 1
Rb1+ 1
O2- -2
loop_
_atom_site_label
_atom_site_type_symbol
_atom_site_symmetry_multiplicity
_atom_site_Wyckoff_symbol
_atom_site_fract_x
_atom_site_fract_y
_atom_site_fract_z
_atom_site_B_iso_or_equiv
_atom_site_occupancy
_atom_site_attached_hydrogens
Ag1 Ag1+ 8 h 0.3548(2) 0.8548(2) 0.25 . 1. 0
Rb1 Rb1+ 8 i 0.1851(5) 0 0.7554(9) . 1. 0
O1 O2- 8 i 0.7836(18) 0 0.2420(28) 0.0165(66) 1. 0
loop_
_atom_site_aniso_label
_atom_site_aniso_type_symbol
_atom_site_aniso_U_11
_atom_site_aniso_U_22
_atom_site_aniso_U_33
_atom_site_aniso_U_12
_atom_site_aniso_U_13
_atom_site_aniso_U_23
Ag1 Ag1+ 0.0078(14) 0.0078(14) 0.0122(17) 0.0021(10) -.0052(17) 0.0052(17)
Rb1 Rb1+ 0.0228(24) 0.0074(19) 0.0109(22) 0 0.0103(34) 0
