
data_49758-ICSD
_database_code_ICSD 49758
_audit_creation_date 1986-04-14
_audit_update_record 2007-08-01
_chemical_name_systematic 'Rubidium copper(I) oxide'
_chemical_formula_structural 'Rb Cu O'
_chemical_formula_sum 'Cu1 O1 Rb1'
_chemical_name_structure_type LiCuO(I4-2m)
_exptl_crystal_density_diffrn 4.14
_cell_length_a 9.541(1)
_cell_length_b 9.541(1)
_cell_length_c 5.812(1)
_cell_angle_alpha 90.
_cell_angle_beta 90.
_cell_angle_gamma 90.
_cell_volume 529.07
_cell_formula_units_Z 8
_symmetry_space_group_name_H-M 'I -4 m 2'
_symmetry_Int_Tables_number 119
_refine_ls_R_factor_all 0.09
loop_
_symmetry_equiv_pos_site_id
_symmetry_equiv_pos_as_xyz
1 'y, x, -z'
2 '-y, -x, -z'
3 'y, -x, -z'
4 '-y, x, -z'
5 'x, -y, z'
6 '-x, y, z'
7 '-x, -y, z'
8 'x, y, z'
9 'y+1/2, x+1/2, -z+1/2'
10 '-y+1/2, -x+1/2, -z+1/2'
11 'y+1/2, -x+1/2, -z+1/2'
12 '-y+1/2, x+1/2, -z+1/2'
13 'x+1/2, -y+1/2, z+1/2'
14 '-x+1/2, y+1/2, z+1/2'
15 '-x+1/2, -y+1/2, z+1/2'
16 'x+1/2, y+1/2, z+1/2'
loop_
_atom_type_symbol
_atom_type_oxidation_number
Cu1+ 1
Rb1+ 1
O2- -2
loop_
_atom_site_label
_atom_site_type_symbol
_atom_site_symmetry_multiplicity
_atom_site_Wyckoff_symbol
_atom_site_fract_x
_atom_site_fract_y
_atom_site_fract_z
_atom_site_B_iso_or_equiv
_atom_site_occupancy
_atom_site_attached_hydrogens
Cu1 Cu1+ 8 h 0.3642(3) 0.8642(3) 0.25 . 1. 0
Rb1 Rb1+ 8 i 0.1924(3) 0 0.7385(8) . 1. 0
O1 O2- 8 i 0.7697(20) 0 0.2632(29) . 1. 0
loop_
_atom_site_aniso_label
_atom_site_aniso_type_symbol
_atom_site_aniso_U_11
_atom_site_aniso_U_22
_atom_site_aniso_U_33
_atom_site_aniso_U_12
_atom_site_aniso_U_13
_atom_site_aniso_U_23
Cu1 Cu1+ 0.0170(11) 0.0170(11) 0.0145(22) -.0011(23) -.0108(23) 0.0108(23)
Rb1 Rb1+ 0.0221(14) 0.0129(13) 0.0021(12) 0 0.0049(19) 0
O1 O2- 0.025(11) 0.0137(81) 0.022(11) 0 -0.008(19) 0
