
#(C) 2017 by FIZ Karlsruhe - Leibniz Institute for Information Infrastructure.  All rights reserved.
data_50001-ICSD
_database_code_ICSD 50001
_audit_creation_date 1998-06-26
_chemical_name_systematic 'Strontium magnesium silicide (11/2/10)'
_chemical_formula_structural 'Sr11 Mg2 Si10'
_chemical_formula_sum 'Mg2 Si10 Sr11'
_exptl_crystal_density_diffrn 3.34
_cell_measurement_temperature 298.
_publ_section_title

;
Kann man Arten von Zintl-Anionen steuern? Variationen ueber das Thema Si2- im
System Sr/Mg/Si
;
loop_
_citation_id
_citation_journal_full
_citation_year
_citation_journal_volume
_citation_page_first
_citation_page_last
_citation_journal_id_ASTM
primary 'Zeitschrift fuer Anorganische und Allgemeine Chemie (1950) (DE)' 1996
622 85 94 ZAACAB
loop_
_publ_author_name
'Currao, A.'
'Curda, J.'
'Nesper, R.'
_cell_length_a 19.7440(40)
_cell_length_b 4.754(1)
_cell_length_c 14.841(3)
_cell_angle_alpha 90.
_cell_angle_beta 112.47(3)
_cell_angle_gamma 90.
_cell_volume 1287.26
_cell_formula_units_Z 2
_symmetry_space_group_name_H-M 'C 1 2/m 1'
_symmetry_Int_Tables_number 12
_refine_ls_R_factor_all 0.085
loop_
_symmetry_equiv_pos_site_id
_symmetry_equiv_pos_as_xyz
1 '-x, y, -z'
2 '-x, -y, -z'
3 'x, -y, z'
4 'x, y, z'
5 '-x+1/2, y+1/2, -z'
6 '-x+1/2, -y+1/2, -z'
7 'x+1/2, -y+1/2, z'
8 'x+1/2, y+1/2, z'
loop_
_atom_type_symbol
_atom_type_oxidation_number
Mg0+ 0
Sr0+ 0
Si0+ 0
loop_
_atom_site_label
_atom_site_type_symbol
_atom_site_symmetry_multiplicity
_atom_site_Wyckoff_symbol
_atom_site_fract_x
_atom_site_fract_y
_atom_site_fract_z
_atom_site_B_iso_or_equiv
_atom_site_occupancy
_atom_site_attached_hydrogens
Mg1 Mg0+ 4 i 0.2212(5) 0 0.9184 . 1. 0
Sr1 Sr0+ 2 b 0 0.5 0 . 1. 0
Sr2 Sr0+ 4 i 0.01732(14) 0 0.8215(2) . 1. 0
Sr3 Sr0+ 4 i 0.14650(14) 0 0.0970(2) . 1. 0
Sr4 Sr0+ 4 i 0.20668(14) 0 0.3797(2) . 1. 0
Sr5 Sr0+ 4 i 0.35623(14) 0 0.2808(2) . 1. 0
Sr6 Sr0+ 4 i 0.42957(14) 0 0.5614(2) . 1. 0
Si1 Si0+ 4 i 0.0457(4) 0 0.5843(5) . 1. 0
Si2 Si0+ 4 i 0.1689(4) 0 0.5804(5) . 1. 0
Si3 Si0+ 4 i 0.2602(4) 0 0.7479(5) . 1. 0
Si4 Si0+ 4 i 0.3869(4) 0 0.7588(5) . 1. 0
Si5 Si0+ 4 i 0.3578(4) 0 0.0708(5) . 1. 0
loop_
_atom_site_aniso_label
_atom_site_aniso_type_symbol
_atom_site_aniso_U_11
_atom_site_aniso_U_22
_atom_site_aniso_U_33
_atom_site_aniso_U_12
_atom_site_aniso_U_13
_atom_site_aniso_U_23
Mg1 Mg0+ 0.0180(4) 0.0300(5) 0.0240(4) 0 0.0030(3) 0
Sr1 Sr0+ 0.0240(2) 0.0220(2) 0.0280(2) 0 0.0073(14) 0
Sr2 Sr0+ 0.0230(13) 0.0243(14) 0.0347(14) 0 0.0062(11) 0
Sr3 Sr0+ 0.0275(14) 0.0280(2) 0.0259(12) 0 0.0086(10) 0
Sr4 Sr0+ 0.0230(12) 0.0249(14) 0.0252(12) 0 0.0079(9) 0
Sr5 Sr0+ 0.0214(12) 0.0232(13) 0.0223(11) 0 0.0052(9) 0
Sr6 Sr0+ 0.0243(13) 0.0202(13) 0.0252(12) 0 0.0079(10) 0
Si1 Si0+ 0.0210(4) 0.0320(5) 0.0240(3) 0 0.0040(3) 0
Si2 Si0+ 0.0220(3) 0.0180(4) 0.0250(3) 0 0.0080(3) 0
Si3 Si0+ 0.0270(4) 0.0260(4) 0.0230(4) 0 0.0070(23) 0
Si4 Si0+ 0.0220(4) 0.0290(4) 0.0310(4) 0 0.0100(3) 0
Si5 Si0+ 0.0250(4) 0.0200(4) 0.0240(3) 0 0.0110(3) 0
#End of TTdata_50001-ICSD