
#(C) 2017 by FIZ Karlsruhe - Leibniz Institute for Information Infrastructure.  All rights reserved.
data_50005-ICSD
_database_code_ICSD 50005
_audit_creation_date 1998-06-26
_chemical_name_systematic 'Magnesium dibismuthate'
_chemical_formula_structural 'Mg (Bi2 O6)'
_chemical_formula_sum 'Bi2 Mg1 O6'
_chemical_name_structure_type ZnSb2O6
_exptl_crystal_density_diffrn 7.9
_cell_measurement_temperature 295.
_publ_section_title
'Preparation of A Bi2 O6 (A = Mg, Zn) with the trirutile-type structure'
loop_
_citation_id
_citation_journal_full
_citation_year
_citation_journal_volume
_citation_page_first
_citation_page_last
_citation_journal_id_ASTM
primary 'Materials Research Bulletin' 1997 32 1003 1008 MRBUAC
loop_
_publ_author_name
'Kumada, N.'
'Takahashi, N.'
'Kinomura, N.'
'Sleight, A.W.'
_cell_length_a 4.8260(1)
_cell_length_b 4.8260(1)
_cell_length_c 9.7190(1)
_cell_angle_alpha 90.
_cell_angle_beta 90.
_cell_angle_gamma 90.
_cell_volume 226.36
_cell_formula_units_Z 2
_symmetry_space_group_name_H-M 'P 42/m n m'
_symmetry_Int_Tables_number 136
_refine_ls_R_factor_all 0.0964
loop_
_symmetry_equiv_pos_site_id
_symmetry_equiv_pos_as_xyz
1 '-y+1/2, x+1/2, -z+1/2'
2 'y+1/2, -x+1/2, -z+1/2'
3 'y, x, -z'
4 '-y, -x, -z'
5 'y+1/2, -x+1/2, z+1/2'
6 '-y+1/2, x+1/2, z+1/2'
7 '-y, -x, z'
8 'y, x, z'
9 'x+1/2, -y+1/2, -z+1/2'
10 '-x+1/2, y+1/2, -z+1/2'
11 'x, y, -z'
12 '-x, -y, -z'
13 '-x+1/2, y+1/2, z+1/2'
14 'x+1/2, -y+1/2, z+1/2'
15 '-x, -y, z'
16 'x, y, z'
loop_
_atom_type_symbol
_atom_type_oxidation_number
Mg2+ 2
Bi5+ 5
O2- -2
loop_
_atom_site_label
_atom_site_type_symbol
_atom_site_symmetry_multiplicity
_atom_site_Wyckoff_symbol
_atom_site_fract_x
_atom_site_fract_y
_atom_site_fract_z
_atom_site_B_iso_or_equiv
_atom_site_occupancy
_atom_site_attached_hydrogens
Mg1 Mg2+ 2 a 0 0 0 1.1(9) 1. 0
Bi1 Bi5+ 4 e 0 0 0.332(4) 4.1(6) 1. 0
O1 O2- 4 f 0.305(5) 0.305(5) 0 2.4(6) 1. 0
O2 O2- 8 j 0.307(4) 0.307(4) 0.335(4) 4.8(6) 1. 0
#End of TTdata_50005-ICSD