
#(C) 2017 by FIZ Karlsruhe - Leibniz Institute for Information Infrastructure.  All rights reserved.
data_50244-ICSD
_database_code_ICSD 50244
_audit_creation_date 1999-06-02
_audit_update_record 2006-04-01
_chemical_name_systematic 'Dilanthanum niccolate'
_chemical_formula_structural 'La2 (Ni O4)'
_chemical_formula_sum 'La2 Ni1 O4'
_chemical_name_structure_type La2CuO4
_exptl_crystal_density_diffrn 7.09
_publ_section_title

;
Oxygen vacancy ordering in La(2-x) Sr(x) Ni O(4-delta) (0 <= x <=0.5): the
crystal structure and defects investigated by neutron diffraction
;
loop_
_citation_id
_citation_journal_full
_citation_year
_citation_journal_volume
_citation_page_first
_citation_page_last
_citation_journal_id_ASTM
primary 'Zeitschrift fuer Physik, B (1984-)' 1997 102 307 315 ZPCMDN
loop_
_publ_author_name
'Medarde, M.'
'Rodriguez Carvajal, J.'
_cell_length_a 5.4324(4)
_cell_length_b 5.5277(4)
_cell_length_c 12.488(1)
_cell_angle_alpha 90.
_cell_angle_beta 90.
_cell_angle_gamma 90.
_cell_volume 375.
_cell_formula_units_Z 4
_symmetry_space_group_name_H-M 'B m a b'
_symmetry_Int_Tables_number 64
_refine_ls_R_factor_all 0.0133
loop_
_symmetry_equiv_pos_site_id
_symmetry_equiv_pos_as_xyz
1 '-x, y+1/2, -z+1/2'
2 '-x, -y+1/2, z+1/2'
3 '-x, y, z'
4 '-x, -y, -z'
5 'x, -y+1/2, z+1/2'
6 'x, y+1/2, -z+1/2'
7 'x, -y, -z'
8 'x, y, z'
9 '-x+1/2, y+1/2, -z'
10 '-x+1/2, -y+1/2, z'
11 '-x+1/2, y, z+1/2'
12 '-x+1/2, -y, -z+1/2'
13 'x+1/2, -y+1/2, z'
14 'x+1/2, y+1/2, -z'
15 'x+1/2, -y, -z+1/2'
16 'x+1/2, y, z+1/2'
loop_
_atom_type_symbol
_atom_type_oxidation_number
La3+ 3
Ni2+ 2
O2- -2
loop_
_atom_site_label
_atom_site_type_symbol
_atom_site_symmetry_multiplicity
_atom_site_Wyckoff_symbol
_atom_site_fract_x
_atom_site_fract_y
_atom_site_fract_z
_atom_site_B_iso_or_equiv
_atom_site_occupancy
_atom_site_attached_hydrogens
La1 La3+ 8 f 0 -.010(1) 0.3637(3) 0.2(1) 1. 0
Ni1 Ni2+ 4 a 0 0 0 0.2(1) 1. 0
O1 O2- 8 e 0.25 0.25 -.009(1) 0.2(1) 1. 0
O2 O2- 8 f 0 0.044(1) 0.1783(5) 0.2(1) 1. 0
#End of TTdata_50244-ICSD