
#(C) 2017 by FIZ Karlsruhe - Leibniz Institute for Information Infrastructure.  All rights reserved.
data_5058-ICSD
_database_code_ICSD 5058
_audit_creation_date 2016-02-01
_chemical_name_systematic 'Tungsten dioxide dihydroxide hydrate'
_chemical_formula_structural 'W O2 (O H)2 H2 O'
_chemical_formula_sum 'H4 O5 W1'
_chemical_name_mineral Hydrotungstite
_exptl_crystal_density_diffrn 4.66
_publ_section_title 'Hydrotungstite, a new mineral from Oruro, Bolivia'
_publ_section_comment 'Cell and Type only determined'
loop_
_citation_id
_citation_journal_full
_citation_year
_citation_journal_volume
_citation_page_first
_citation_page_last
_citation_journal_id_ASTM
primary 'American Mineralogist' 1944 29 192 210 AMMIAY
loop_
_publ_author_name
'Kerr, P.F.'
'Young, F.'
_cell_length_a 7.379(5)
_cell_length_b 6.901(5)
_cell_length_c 3.748(5)
_cell_angle_alpha 90.
_cell_angle_beta 90.37(17)
_cell_angle_gamma 90.
_cell_volume 190.85
_cell_formula_units_Z 2
_symmetry_space_group_name_H-M 'P 1 2/m 1'
_symmetry_Int_Tables_number 10
loop_
_symmetry_equiv_pos_site_id
_symmetry_equiv_pos_as_xyz
1 '-x, y, -z'
2 '-x, -y, -z'
3 'x, -y, z'
4 'x, y, z'
loop_
_atom_type_symbol
_atom_type_oxidation_number
W6+ 6
O2- -2
H1+ 1
loop_
_atom_site_label
_atom_site_type_symbol
_atom_site_symmetry_multiplicity
_atom_site_Wyckoff_symbol
_atom_site_fract_x
_atom_site_fract_y
_atom_site_fract_z
_atom_site_B_iso_or_equiv
_atom_site_occupancy
_atom_site_attached_hydrogens
W1 W6+ 2 m 0.25 0 0.07 . 1. 0
O1 O2- 1 a 0 0 0 . 1. 0
O2 O2- 1 d 0.5 0 0 . 1. 0
O3 O2- 1 f 0 0.5 0.5 . 1. 0
O4 O2- 1 h 0.5 0.5 0.5 . 1. 0
O5 O2- 2 m 0.25 0 0.57 . 1. 0
O6 O2- 4 o 0.25 0.27 0.07 . 1. 0
#End of TTdata_5058-ICSD