
#(C) 2017 by FIZ Karlsruhe - Leibniz Institute for Information Infrastructure.  All rights reserved.
data_50990-ICSD
_database_code_ICSD 50990
_audit_creation_date 2000-12-16
_chemical_name_systematic 'Scandium nickel phosphide (1/1/1)'
_chemical_formula_structural 'Sc Ni P'
_chemical_formula_sum 'Ni1 P1 Sc1'
_chemical_name_structure_type TiNiSi-MgSrSi
_exptl_crystal_density_diffrn 5.35
_cell_measurement_temperature 295.
_publ_section_title 'Sc-Sc bonding in the new ternary phosphide Sc Ni P'
loop_
_citation_id
_citation_journal_full
_citation_year
_citation_journal_volume
_citation_page_first
_citation_page_last
_citation_journal_id_ASTM
primary 'Journal of Solid State Chemistry' 1998 137 218 222 JSSCBI
loop_
_publ_author_name
'Kleinke, H.'
'Franzen, H.F.'
_cell_length_a 6.327(2)
_cell_length_b 3.728(2)
_cell_length_c 7.081(3)
_cell_angle_alpha 90.
_cell_angle_beta 90.
_cell_angle_gamma 90.
_cell_volume 167.02
_cell_formula_units_Z 4
_symmetry_space_group_name_H-M 'P n m a'
_symmetry_Int_Tables_number 62
_refine_ls_R_factor_all 0.061
loop_
_symmetry_equiv_pos_site_id
_symmetry_equiv_pos_as_xyz
1 'x+1/2, y, -z+1/2'
2 'x, -y+1/2, z'
3 '-x+1/2, y+1/2, z+1/2'
4 '-x, -y, -z'
5 '-x+1/2, -y, z+1/2'
6 '-x, y+1/2, -z'
7 'x+1/2, -y+1/2, -z+1/2'
8 'x, y, z'
loop_
_atom_type_symbol
_atom_type_oxidation_number
Sc0+ 0
Ni0+ 0
P0+ 0
loop_
_atom_site_label
_atom_site_type_symbol
_atom_site_symmetry_multiplicity
_atom_site_Wyckoff_symbol
_atom_site_fract_x
_atom_site_fract_y
_atom_site_fract_z
_atom_site_B_iso_or_equiv
_atom_site_occupancy
_atom_site_attached_hydrogens
Sc1 Sc0+ 4 c 0.0221(4) 0.25 0.6853(3) . 1. 0
Ni1 Ni0+ 4 c 0.1423(3) 0.25 0.0619(2) . 1. 0
P1 P0+ 4 c 0.2653(5) 0.25 0.3813(4) . 1. 0
loop_
_atom_site_aniso_label
_atom_site_aniso_type_symbol
_atom_site_aniso_U_11
_atom_site_aniso_U_22
_atom_site_aniso_U_33
_atom_site_aniso_U_12
_atom_site_aniso_U_13
_atom_site_aniso_U_23
Sc1 Sc0+ 0.005(1) 0.003(1) 0.005(1) 0.000(1) 0 0
Ni1 Ni0+ 0.009(1) 0.0049(9) 0.0057(8) 0.0016(7) 0 0
P1 P0+ 0.004(1) 0.003(2) 0.005(1) 0.001(1) 0 0
#End of TTdata_50990-ICSD