
#(C) 2017 by FIZ Karlsruhe - Leibniz Institute for Information Infrastructure.  All rights reserved.
data_51149-ICSD
_database_code_ICSD 51149
_audit_creation_date 2002-04-01
_audit_update_record 2005-10-01
_chemical_name_systematic 'Niobium oxide phosphate(V) - HT'
_chemical_formula_structural 'Nb O (P O4)'
_chemical_formula_sum 'Nb1 O5 P1'
_chemical_name_structure_type NbO(PO4)
_exptl_crystal_density_diffrn 4.
_cell_measurement_temperature 548.
_publ_section_title
'Phase transition and negative thermal expansion in tetragonal Nb O P O4'
loop_
_citation_id
_citation_journal_full
_citation_year
_citation_journal_volume
_citation_page_first
_citation_page_last
_citation_journal_id_ASTM
primary 'Journal of Solid State Chemistry' 1998 141 303 307 JSSCBI
loop_
_publ_author_name
'Amos, T.G.'
'Yokochi, A.'
'Sleight, A.W.'
_cell_length_a 6.4038
_cell_length_b 6.4038
_cell_length_c 4.1249
_cell_angle_alpha 90.
_cell_angle_beta 90.
_cell_angle_gamma 90.
_cell_volume 169.16
_cell_formula_units_Z 2
_symmetry_space_group_name_H-M 'P 4/n m m Z'
_symmetry_Int_Tables_number 129
_refine_ls_R_factor_all 0.0725
loop_
_symmetry_equiv_pos_site_id
_symmetry_equiv_pos_as_xyz
1 'y+1/2, x+1/2, -z'
2 '-y, x+1/2, -z'
3 'y+1/2, -x, -z'
4 '-y, -x, -z'
5 'x+1/2, y+1/2, -z'
6 '-x, y+1/2, -z'
7 'x+1/2, -y, -z'
8 '-x, -y, -z'
9 '-y+1/2, -x+1/2, z'
10 'y, -x+1/2, z'
11 '-y+1/2, x, z'
12 'y, x, z'
13 '-x+1/2, -y+1/2, z'
14 'x, -y+1/2, z'
15 '-x+1/2, y, z'
16 'x, y, z'
loop_
_atom_type_symbol
_atom_type_oxidation_number
Nb5+ 5
O2- -2
P5+ 5
O2- -2
loop_
_atom_site_label
_atom_site_type_symbol
_atom_site_symmetry_multiplicity
_atom_site_Wyckoff_symbol
_atom_site_fract_x
_atom_site_fract_y
_atom_site_fract_z
_atom_site_B_iso_or_equiv
_atom_site_occupancy
_atom_site_attached_hydrogens
Nb1 Nb5+ 2 c 0.25 0.25 0.7819(4) . 1. 0
O1 O2- 2 c 0.25 0.25 0.2036(5) . 1. 0
P2 P5+ 2 b 0.25 0.75 0.5 . 1. 0
O2 O2- 8 i 0.75 0.4446(1) 0.2877(3) . 1. 0
#End of TTdata_51149-ICSD