
#(C) 2017 by FIZ Karlsruhe - Leibniz Institute for Information Infrastructure.  All rights reserved.
data_51214-ICSD
_database_code_ICSD 51214
_audit_creation_date 2002-04-01
_chemical_name_systematic 'Vanadium(IV) oxide'
_chemical_formula_structural 'V O2'
_chemical_formula_sum 'O2 V1'
_exptl_crystal_density_diffrn 4.01
_cell_measurement_temperature 473.
_publ_section_title 'Crystal structures and transition mechanism of V O2(A)'
loop_
_citation_id
_citation_journal_full
_citation_year
_citation_journal_volume
_citation_page_first
_citation_page_last
_citation_journal_id_ASTM
primary 'Journal of Solid State Chemistry' 1998 141 594 598 JSSCBI
loop_
_publ_author_name
'Oka, Y.'
'Sato, S.'
'Yao, T.'
'Yamamoto, N.'
_cell_length_a 8.476(2)
_cell_length_b 8.476(2)
_cell_length_c 3.824(2)
_cell_angle_alpha 90.
_cell_angle_beta 90.
_cell_angle_gamma 90.
_cell_volume 274.73
_cell_formula_units_Z 8
_symmetry_space_group_name_H-M 'I 4/m'
_symmetry_Int_Tables_number 87
_refine_ls_R_factor_all 0.012
loop_
_symmetry_equiv_pos_site_id
_symmetry_equiv_pos_as_xyz
1 '-y, x, -z'
2 'y, -x, -z'
3 'x, y, -z'
4 '-x, -y, -z'
5 'y, -x, z'
6 '-y, x, z'
7 '-x, -y, z'
8 'x, y, z'
9 '-y+1/2, x+1/2, -z+1/2'
10 'y+1/2, -x+1/2, -z+1/2'
11 'x+1/2, y+1/2, -z+1/2'
12 '-x+1/2, -y+1/2, -z+1/2'
13 'y+1/2, -x+1/2, z+1/2'
14 '-y+1/2, x+1/2, z+1/2'
15 '-x+1/2, -y+1/2, z+1/2'
16 'x+1/2, y+1/2, z+1/2'
loop_
_atom_type_symbol
_atom_type_oxidation_number
V4+ 4
O2- -2
loop_
_atom_site_label
_atom_site_type_symbol
_atom_site_symmetry_multiplicity
_atom_site_Wyckoff_symbol
_atom_site_fract_x
_atom_site_fract_y
_atom_site_fract_z
_atom_site_B_iso_or_equiv
_atom_site_occupancy
_atom_site_attached_hydrogens
V1 V4+ 8 h 0.30024(2) 0.02543(2) 0 . 1. 0
O1 O2- 8 h 0.4995(1) 0.1528(1) 0 . 1. 0
O2 O2- 8 h 0.1601(1) 0.1601(1) 0 . 1. 0
loop_
_atom_site_aniso_label
_atom_site_aniso_type_symbol
_atom_site_aniso_U_11
_atom_site_aniso_U_22
_atom_site_aniso_U_33
_atom_site_aniso_U_12
_atom_site_aniso_U_13
_atom_site_aniso_U_23
V1 V4+ 0.00715(8) 0.00827(9) 0.00681(7) 0.00058(5) 0 0
O1 O2- 0.0117(4) 0.0125(3) 0.0153(4) 0.0044(4) 0 0
O2 O2- 0.0096(3) 0.0101(3) 0.0065(3) -.0019(2) 0 0
#End of TTdata_51214-ICSD