
data_51533-ICSD
_database_code_ICSD 51533
_audit_creation_date 2003-04-01
_audit_update_record 2016-02-01
_chemical_name_systematic 'Cesium carbide (2/2)'
_chemical_formula_structural 'Cs2 C2'
_chemical_formula_sum 'C2 Cs2'
_exptl_crystal_density_diffrn 4.01
_cell_measurement_temperature 20.
_cell_length_a 8.637(2)
_cell_length_b 8.637(2)
_cell_length_c 5.574(3)
_cell_angle_alpha 90
_cell_angle_beta 90
_cell_angle_gamma 120
_cell_volume 360.1
_cell_formula_units_Z 3
_symmetry_space_group_name_H-M 'P -6 2 m'
_symmetry_Int_Tables_number 189
_refine_ls_R_factor_all 0.0403
loop_
_symmetry_equiv_pos_site_id
_symmetry_equiv_pos_as_xyz
1 '-x, -x+y, -z'
2 'x-y, -y, -z'
3 'y, x, -z'
4 '-x, -x+y, z'
5 'x-y, -y, z'
6 'y, x, z'
7 '-x+y, -x, -z'
8 '-y, x-y, -z'
9 'x, y, -z'
10 '-x+y, -x, z'
11 '-y, x-y, z'
12 'x, y, z'
loop_
_atom_type_symbol
_atom_type_oxidation_number
Cs1+ 1
C1- -1
loop_
_atom_site_label
_atom_site_type_symbol
_atom_site_symmetry_multiplicity
_atom_site_Wyckoff_symbol
_atom_site_fract_x
_atom_site_fract_y
_atom_site_fract_z
_atom_site_B_iso_or_equiv
_atom_site_occupancy
_atom_site_attached_hydrogens
Cs1 Cs1+ 3 g 0.550(2) 0. 0.5 0.020(2) 1. 0
Cs2 Cs1+ 3 f 0.246(2) 0. 0. 0.020(2) 1. 0
C1 C1- 2 e 0. 0. 0.408(4) 0.010(2) 1. 0
C2 C1- 4 h 0.3333 0.6667 0.090(3) 0.010(2) 1. 0
