
data_51575-ICSD
_database_code_ICSD 51575
_audit_creation_date 2003-10-01
_chemical_name_systematic 'Boron oxide'
_chemical_formula_structural 'B2 O3'
_chemical_formula_sum 'B2 O3'
_exptl_crystal_density_diffrn 2.55
_cell_length_a 4.3358
_cell_length_b 4.3358
_cell_length_c 8.3397
_cell_angle_alpha 90
_cell_angle_beta 90
_cell_angle_gamma 120
_cell_volume 135.77
_cell_formula_units_Z 3
_symmetry_space_group_name_H-M 'P 31 2 1'
_symmetry_Int_Tables_number 152
_refine_ls_R_factor_all 0.052
loop_
_symmetry_equiv_pos_site_id
_symmetry_equiv_pos_as_xyz
1 'x-y, -y, -z+2/3'
2 '-x, -x+y, -z+1/3'
3 'y, x, -z'
4 '-x+y, -x, z+2/3'
5 '-y, x-y, z+1/3'
6 'x, y, z'
loop_
_atom_type_symbol
_atom_type_oxidation_number
B3+ 3
O2- -2
loop_
_atom_site_label
_atom_site_type_symbol
_atom_site_symmetry_multiplicity
_atom_site_Wyckoff_symbol
_atom_site_fract_x
_atom_site_fract_y
_atom_site_fract_z
_atom_site_B_iso_or_equiv
_atom_site_occupancy
_atom_site_attached_hydrogens
B1 B3+ 6 c 0.3954(19) 0.2299(23) 0.2244(9) 0.0102(14) 1. 0
O1 O2- 6 c 0.6009(12) 0.1477(10) 0.1282(5) 0.0101(11) 1. 0
O2 O2- 3 a 0.1607(14) 0. 0.3333 0.0092(14) 1. 0
