
#(C) 2017 by FIZ Karlsruhe - Leibniz Institute for Information Infrastructure.  All rights reserved.
data_52079-ICSD
_database_code_ICSD 52079
_audit_creation_date 2003-04-01
_chemical_name_systematic 'Rhodium yttrium silicide (1/3/3)'
_chemical_formula_structural 'Rh Y3 Si3'
_chemical_formula_sum 'Rh1 Si3 Y3'
_chemical_name_structure_type NiSc3Si3
_exptl_crystal_density_diffrn 5.37
_publ_section_title
'Y3 Rh Si3: Member of the structural series with formula Rn+2 T2 Sin+2'
loop_
_citation_id
_citation_journal_full
_citation_year
_citation_journal_volume
_citation_page_first
_citation_page_last
_citation_journal_id_ASTM
primary 'Journal of the Less-Common Metals' 1985 106 103 107 JCOMAH
loop_
_publ_author_name
'Paccard, L.'
'Paccard, D.'
'Moreau, J.M.'
_cell_length_a 10.52
_cell_length_b 4.206
_cell_length_c 13.89
_cell_angle_alpha 90.
_cell_angle_beta 114.46
_cell_angle_gamma 90.
_cell_volume 559.43
_cell_formula_units_Z 4
_symmetry_space_group_name_H-M 'C 1 2/m 1'
_symmetry_Int_Tables_number 12
_refine_ls_R_factor_all 0.059
loop_
_symmetry_equiv_pos_site_id
_symmetry_equiv_pos_as_xyz
1 '-x, y, -z'
2 '-x, -y, -z'
3 'x, -y, z'
4 'x, y, z'
5 '-x+1/2, y+1/2, -z'
6 '-x+1/2, -y+1/2, -z'
7 'x+1/2, -y+1/2, z'
8 'x+1/2, y+1/2, z'
loop_
_atom_type_symbol
_atom_type_oxidation_number
Rh0+ 0
Y0+ 0
Si0+ 0
loop_
_atom_site_label
_atom_site_type_symbol
_atom_site_symmetry_multiplicity
_atom_site_Wyckoff_symbol
_atom_site_fract_x
_atom_site_fract_y
_atom_site_fract_z
_atom_site_B_iso_or_equiv
_atom_site_occupancy
_atom_site_attached_hydrogens
Rh1 Rh0+ 4 i 0.1678(2) 0 0.4149(2) 0.43(2) 1. 0
Y1 Y0+ 4 i 0.1466(2) 0 0.6238(2) 0.37(3) 1. 0
Y2 Y0+ 4 i 0.4847(2) 0 0.2281(2) 0.36(3) 1. 0
Y3 Y0+ 4 i 0.3180(2) 0 0.9210(2) 0.37(3) 1. 0
Si1 Si0+ 4 i 0.4124(6) 0 0.5438(5) 0.51(9) 1. 0
Si2 Si0+ 4 i 0.0376(6) 0 0.9249(5) 0.49(9) 1. 0
Si3 Si0+ 4 i 0.1910(6) 0 0.2367(5) 0.43(9) 1. 0
#End of TTdata_52079-ICSD