
#(C) 2017 by FIZ Karlsruhe - Leibniz Institute for Information Infrastructure.  All rights reserved.
data_52404-ICSD
_database_code_ICSD 52404
_audit_creation_date 2003-04-01
_audit_update_record 2012-02-01
_chemical_name_systematic 'Zirconium antimonide (1/1)'
_chemical_formula_structural 'Zr Sb'
_chemical_formula_sum 'Sb1 Zr1'
_chemical_name_structure_type ZrSb
_exptl_crystal_density_diffrn 7.59
_publ_section_title

;
Study of the crystal structures of Zr Sb and beta-Zr Sb2 and of the bonding in
the two Zr Sb2 structures
;
loop_
_citation_id
_citation_journal_full
_citation_year
_citation_journal_volume
_citation_page_first
_citation_page_last
_citation_journal_id_ASTM
primary 'Journal of Solid State Chemistry' 1988 73 452 467 JSSCBI
loop_
_publ_author_name
'Garcia, E.'
'Corbett, J.D.'
_cell_length_a 3.827(1)
_cell_length_b 10.426(3)
_cell_length_c 14.007(5)
_cell_angle_alpha 90.
_cell_angle_beta 90.
_cell_angle_gamma 90.
_cell_volume 558.88
_cell_formula_units_Z 12
_symmetry_space_group_name_H-M 'C m c m'
_symmetry_Int_Tables_number 63
_refine_ls_R_factor_all 0.037
loop_
_symmetry_equiv_pos_site_id
_symmetry_equiv_pos_as_xyz
1 '-x, y, -z+1/2'
2 '-x, -y, z+1/2'
3 '-x, y, z'
4 '-x, -y, -z'
5 'x, -y, z+1/2'
6 'x, y, -z+1/2'
7 'x, -y, -z'
8 'x, y, z'
9 '-x+1/2, y+1/2, -z+1/2'
10 '-x+1/2, -y+1/2, z+1/2'
11 '-x+1/2, y+1/2, z'
12 '-x+1/2, -y+1/2, -z'
13 'x+1/2, -y+1/2, z+1/2'
14 'x+1/2, y+1/2, -z+1/2'
15 'x+1/2, -y+1/2, -z'
16 'x+1/2, y+1/2, z'
loop_
_atom_type_symbol
_atom_type_oxidation_number
Zr3+ 3
Sb3- -3
loop_
_atom_site_label
_atom_site_type_symbol
_atom_site_symmetry_multiplicity
_atom_site_Wyckoff_symbol
_atom_site_fract_x
_atom_site_fract_y
_atom_site_fract_z
_atom_site_B_iso_or_equiv
_atom_site_occupancy
_atom_site_attached_hydrogens
Zr1 Zr3+ 4 c 0 0.3798(2) 0.25 . 1. 0
Zr2 Zr3+ 8 f 0 0.0714(1) 0.1088(1) . 1. 0
Sb1 Sb3- 4 c 0 0.6694(1) 0.25 . 1. 0
Sb2 Sb3- 8 f 0 0.6415(1) 0.5477(1) . 1. 0
#End of TTdata_52404-ICSD