
#(C) 2017 by FIZ Karlsruhe - Leibniz Institute for Information Infrastructure.  All rights reserved.
data_52775-ICSD
_database_code_ICSD 52775
_audit_creation_date 2003-04-01
_chemical_name_systematic 'Calcium lithium antimonide'
_chemical_formula_structural 'Ca Li Sb'
_chemical_formula_sum 'Ca1 Li1 Sb1'
_chemical_name_structure_type TiNiSi-MgSrSi
_exptl_crystal_density_diffrn 3.76
_publ_section_title

;
Darstellung und Kristallstruktur von Ca Li Sb. (Ternaere E-Phasen von
Hauptgruppenelementen II)
;
loop_
_citation_id
_citation_journal_full
_citation_year
_citation_journal_volume
_citation_page_first
_citation_page_last
_citation_journal_id_ASTM
primary

;
Zeitschrift fuer Naturforschung, Teil B. Anorganische Chemie, Organische
Chemie (2,1947-32,1977)
; 1969 24 1344 1345 ZENBAX
loop_
_publ_author_name
'Eisenmann, B.'
'Liebrich, O.'
'Schaefer, H.'
'Weiss, A.'
_cell_length_a 7.52(1)
_cell_length_b 4.67(1)
_cell_length_c 8.50(1)
_cell_angle_alpha 90.
_cell_angle_beta 90.
_cell_angle_gamma 90.
_cell_volume 298.51
_cell_formula_units_Z 4
_symmetry_space_group_name_H-M 'P n m a'
_symmetry_Int_Tables_number 62
_refine_ls_R_factor_all 0.14
loop_
_symmetry_equiv_pos_site_id
_symmetry_equiv_pos_as_xyz
1 'x+1/2, y, -z+1/2'
2 'x, -y+1/2, z'
3 '-x+1/2, y+1/2, z+1/2'
4 '-x, -y, -z'
5 '-x+1/2, -y, z+1/2'
6 '-x, y+1/2, -z'
7 'x+1/2, -y+1/2, -z+1/2'
8 'x, y, z'
loop_
_atom_type_symbol
_atom_type_oxidation_number
Ca2+ 2
Li1+ 1
Sb3- -3
loop_
_atom_site_label
_atom_site_type_symbol
_atom_site_symmetry_multiplicity
_atom_site_Wyckoff_symbol
_atom_site_fract_x
_atom_site_fract_y
_atom_site_fract_z
_atom_site_B_iso_or_equiv
_atom_site_occupancy
_atom_site_attached_hydrogens
Ca1 Ca2+ 4 c 0.507 0.25 0.702 . 1. 0
Li1 Li1+ 4 c 0.688 0.25 0.074 . 1. 0
Sb1 Sb3- 4 c 0.268 0.25 0.099 . 1. 0
#End of TTdata_52775-ICSD