
#(C) 2017 by FIZ Karlsruhe - Leibniz Institute for Information Infrastructure.  All rights reserved.
data_53189-ICSD
_database_code_ICSD 53189
_audit_creation_date 2002-04-01
_audit_update_record 2008-08-01
_chemical_name_systematic 'Chromium niobium phosphide (1/1/1)'
_chemical_formula_structural 'Cr Nb P'
_chemical_formula_sum 'Cr1 Nb1 P1'
_chemical_name_structure_type TiNiSi-MgSrSi
_exptl_crystal_density_diffrn 7.09
_publ_section_title
'Reaction of niobium and phosphorus with vanadium or chromium'
loop_
_citation_id
_citation_journal_full
_citation_year
_citation_journal_volume
_citation_page_first
_citation_page_last
_citation_journal_id_ASTM
primary 'Izvestiya Akademii Nauk SSSR, Neorganicheskie Materialy' 1988 24 505
509 IVNMAW
loop_
_publ_author_name
'Lomnitskaya, Ya.F.'
'Zakharets, L.I.'
'Kondratyuk, G.D.'
_cell_length_a 6.302(5)
_cell_length_b 3.504(1)
_cell_length_c 7.464(5)
_cell_angle_alpha 90.
_cell_angle_beta 90.
_cell_angle_gamma 90.
_cell_volume 164.82
_cell_formula_units_Z 4
_symmetry_space_group_name_H-M 'P n m a'
_symmetry_Int_Tables_number 62
_refine_ls_R_factor_all 0.14
loop_
_symmetry_equiv_pos_site_id
_symmetry_equiv_pos_as_xyz
1 'x+1/2, y, -z+1/2'
2 'x, -y+1/2, z'
3 '-x+1/2, y+1/2, z+1/2'
4 '-x, -y, -z'
5 '-x+1/2, -y, z+1/2'
6 '-x, y+1/2, -z'
7 'x+1/2, -y+1/2, -z+1/2'
8 'x, y, z'
loop_
_atom_type_symbol
_atom_type_oxidation_number
Cr0+ 0
Nb0+ 0
P0+ 0
loop_
_atom_site_label
_atom_site_type_symbol
_atom_site_symmetry_multiplicity
_atom_site_Wyckoff_symbol
_atom_site_fract_x
_atom_site_fract_y
_atom_site_fract_z
_atom_site_B_iso_or_equiv
_atom_site_occupancy
_atom_site_attached_hydrogens
Cr1 Cr0+ 4 c 0.155 0.25 0.567 . 1. 0
Nb1 Nb0+ 4 c 0.034 0.25 0.175 . 1. 0
P1 P0+ 4 c 0.75 0.25 0.647 . 1. 0
#End of TTdata_53189-ICSD