
#(C) 2017 by FIZ Karlsruhe - Leibniz Institute for Information Infrastructure.  All rights reserved.
data_53219-ICSD
_database_code_ICSD 53219
_audit_creation_date 2002-04-01
_chemical_name_systematic 'Chromium tantalum silicide (4/2/5)'
_chemical_formula_structural 'Cr4 Ta2 Si5'
_chemical_formula_sum 'Cr4 Si5 Ta2'
_chemical_name_structure_type V6Si5
_exptl_crystal_density_diffrn 8.17
_publ_section_title

;
Une famille de siliciures ternaires isotypes de V6 Si5: (T,T')6 Si5 ou
T=V,Cr,Mn et T'=Ti,Nb,Ta
;
loop_
_citation_id
_citation_journal_full
_citation_year
_citation_journal_volume
_citation_page_first
_citation_page_last
_citation_journal_id_ASTM
primary 'Journal of the Less-Common Metals' 1977 52 247 258 JCOMAH
loop_
_publ_author_name
'Steinmetz, J.'
'Roques, B.'
_cell_length_a 15.79(1)
_cell_length_b 7.504(5)
_cell_length_c 4.874(2)
_cell_angle_alpha 90.
_cell_angle_beta 90.
_cell_angle_gamma 90.
_cell_volume 577.51
_cell_formula_units_Z 4
_symmetry_space_group_name_H-M 'I b a m'
_symmetry_Int_Tables_number 72
loop_
_symmetry_equiv_pos_site_id
_symmetry_equiv_pos_as_xyz
1 '-x, y, z+1/2'
2 'x, -y, z+1/2'
3 'x, y, -z'
4 '-x, -y, -z'
5 'x, -y, -z+1/2'
6 '-x, y, -z+1/2'
7 '-x, -y, z'
8 'x, y, z'
9 '-x+1/2, y+1/2, z'
10 'x+1/2, -y+1/2, z'
11 'x+1/2, y+1/2, -z+1/2'
12 '-x+1/2, -y+1/2, -z+1/2'
13 'x+1/2, -y+1/2, -z'
14 '-x+1/2, y+1/2, -z'
15 '-x+1/2, -y+1/2, z+1/2'
16 'x+1/2, y+1/2, z+1/2'
loop_
_atom_type_symbol
_atom_type_oxidation_number
Cr0+ 0
Ta0+ 0
Si0+ 0
loop_
_atom_site_label
_atom_site_type_symbol
_atom_site_symmetry_multiplicity
_atom_site_Wyckoff_symbol
_atom_site_fract_x
_atom_site_fract_y
_atom_site_fract_z
_atom_site_B_iso_or_equiv
_atom_site_occupancy
_atom_site_attached_hydrogens
Cr1 Cr0+ 8 j 0.4364 0.2455 0 . 1. 0
Cr2 Cr0+ 8 j 0.1423 0.1136 0 . 1. 0
Ta1 Ta0+ 8 f 0.3097 0 0.25 . 1. 0
Si1 Si0+ 4 a 0 0 0.25 . 1. 0
Si2 Si0+ 8 j 0.2908 0.2912 0 . 1. 0
Si3 Si0+ 8 j 0.0601 0.4136 0 . 1. 0
#End of TTdata_53219-ICSD