
#(C) 2017 by FIZ Karlsruhe - Leibniz Institute for Information Infrastructure.  All rights reserved.
data_53283-ICSD
_database_code_ICSD 53283
_audit_creation_date 2002-04-01
_audit_update_record 2013-02-01
_chemical_name_systematic 'Copper titanium germanide (1/1/1)'
_chemical_formula_structural 'Cu Ti Ge'
_chemical_formula_sum 'Cu1 Ge1 Ti1'
_chemical_name_structure_type TiNiSi-MgSrSi
_exptl_crystal_density_diffrn 7.01
_publ_section_title 'Structure of the compounds Ti Cu Ge and Hf Cu Ge'
loop_
_citation_id
_citation_journal_full
_citation_year
_citation_journal_volume
_citation_page_first
_citation_page_last
_citation_journal_id_ASTM
primary 'Izvestiya Akademii Nauk SSSR, Neorganicheskie Materialy' 1986 22 606
606 IVNMAW
loop_
_publ_author_name
'Kinzhibalo, V.V.'
'Kotur, B.Ya.'
'Bochvar, N.R.'
'Lysova, E.V.'
_cell_length_a 6.275(1)
_cell_length_b 3.8184(6)
_cell_length_c 7.278(2)
_cell_angle_alpha 90.
_cell_angle_beta 90.
_cell_angle_gamma 90.
_cell_volume 174.38
_cell_formula_units_Z 4
_symmetry_space_group_name_H-M 'P n m a'
_symmetry_Int_Tables_number 62
_refine_ls_R_factor_all 0.16
loop_
_symmetry_equiv_pos_site_id
_symmetry_equiv_pos_as_xyz
1 'x+1/2, y, -z+1/2'
2 'x, -y+1/2, z'
3 '-x+1/2, y+1/2, z+1/2'
4 '-x, -y, -z'
5 '-x+1/2, -y, z+1/2'
6 '-x, y+1/2, -z'
7 'x+1/2, -y+1/2, -z+1/2'
8 'x, y, z'
loop_
_atom_type_symbol
_atom_type_oxidation_number
Cu0+ 0
Ti0+ 0
Ge0+ 0
loop_
_atom_site_label
_atom_site_type_symbol
_atom_site_symmetry_multiplicity
_atom_site_Wyckoff_symbol
_atom_site_fract_x
_atom_site_fract_y
_atom_site_fract_z
_atom_site_B_iso_or_equiv
_atom_site_occupancy
_atom_site_attached_hydrogens
Cu1 Cu0+ 4 c 0.151 0.25 0.556 . 1. 0
Ti1 Ti0+ 4 c 0.011 0.25 0.19 . 1. 0
Ge1 Ge0+ 4 c 0.77 0.25 0.641 . 1. 0
#End of TTdata_53283-ICSD