
#(C) 2017 by FIZ Karlsruhe - Leibniz Institute for Information Infrastructure.  All rights reserved.
data_53304-ICSD
_database_code_ICSD 53304
_audit_creation_date 2003-04-01
_chemical_name_systematic 'Copper magnesium silicide (3/2/1)'
_chemical_formula_structural 'Cu3 Mg2 Si'
_chemical_formula_sum 'Cu3 Mg2 Si1'
_chemical_name_structure_type Laves(2H)-MgZn2
_exptl_crystal_density_diffrn 5.2
_publ_section_title

;
Untersuchungen im System Magnesium-Kupfer-Silicium mit besonderer
Beruecksichtigung des Schnittes Mg Cu2-Mg Si2
;
loop_
_citation_id
_citation_journal_full
_citation_year
_citation_journal_volume
_citation_page_first
_citation_page_last
_citation_journal_id_ASTM
primary 'Metallwirtschaft, Metallwissenschaft, Metalltechnik' 1939 18 459 463
METWAH
loop_
_publ_author_name
'Witte, H.'
_cell_length_a 5.004(5)
_cell_length_b 5.004
_cell_length_c 7.872(8)
_cell_angle_alpha 90.
_cell_angle_beta 90.
_cell_angle_gamma 120.
_cell_volume 170.71
_cell_formula_units_Z 2
_symmetry_space_group_name_H-M 'P 63/m m c'
_symmetry_Int_Tables_number 194
loop_
_symmetry_equiv_pos_site_id
_symmetry_equiv_pos_as_xyz
1 'x, x-y, -z+1/2'
2 '-x+y, y, -z+1/2'
3 '-y, -x, -z+1/2'
4 '-x+y, -x, -z+1/2'
5 '-y, x-y, -z+1/2'
6 'x, y, -z+1/2'
7 '-x, -x+y, z+1/2'
8 'x-y, -y, z+1/2'
9 'y, x, z+1/2'
10 'x-y, x, z+1/2'
11 'y, -x+y, z+1/2'
12 '-x, -y, z+1/2'
13 '-x, -x+y, -z'
14 'x-y, -y, -z'
15 'y, x, -z'
16 'x-y, x, -z'
17 'y, -x+y, -z'
18 '-x, -y, -z'
19 'x, x-y, z'
20 '-x+y, y, z'
21 '-y, -x, z'
22 '-x+y, -x, z'
23 '-y, x-y, z'
24 'x, y, z'
loop_
_atom_type_symbol
_atom_type_oxidation_number
Cu0+ 0
Mg0+ 0
Si0+ 0
loop_
_atom_site_label
_atom_site_type_symbol
_atom_site_symmetry_multiplicity
_atom_site_Wyckoff_symbol
_atom_site_fract_x
_atom_site_fract_y
_atom_site_fract_z
_atom_site_B_iso_or_equiv
_atom_site_occupancy
_atom_site_attached_hydrogens
Cu1 Cu0+ 6 h 0.833 0.666 0.25 . 1. 0
Mg1 Mg0+ 4 f 0.3333 0.6667 0.062 . 1. 0
Si1 Si0+ 2 a 0 0 0 . 1. 0
#End of TTdata_53304-ICSD