
#(C) 2017 by FIZ Karlsruhe - Leibniz Institute for Information Infrastructure.  All rights reserved.
data_53543-ICSD
_database_code_ICSD 53543
_audit_creation_date 2003-04-01
_audit_update_record 2012-02-01
_chemical_name_systematic 'Iron selenide'
_chemical_formula_structural 'Fe Se'
_chemical_formula_sum 'Fe1 Se1'
_chemical_name_structure_type FeSe(tP2)
_exptl_crystal_density_diffrn 5.4
_publ_section_title

;
Studies of structure, electrical resistivity, and modulated structures in Fe
Se and Ni Se alloys
;
loop_
_citation_id
_citation_journal_full
_citation_year
_citation_journal_volume
_citation_page_first
_citation_page_last
_citation_journal_id_ASTM
primary 'Acta Crystallographica A (24,1968-38,1982)' 1975 31 82 82 ACACBN
loop_
_publ_author_name
'Srivastava, M.M.'
'Srivastava, O.N.'
_cell_length_a 2.96(3)
_cell_length_b 2.96(3)
_cell_length_c 4.73(5)
_cell_angle_alpha 90.
_cell_angle_beta 90.
_cell_angle_gamma 90.
_cell_volume 41.44
_cell_formula_units_Z 1
_symmetry_space_group_name_H-M 'P 4/m m m'
_symmetry_Int_Tables_number 123
loop_
_symmetry_equiv_pos_site_id
_symmetry_equiv_pos_as_xyz
1 'y, x, -z'
2 '-y, -x, -z'
3 '-y, x, -z'
4 'y, -x, -z'
5 '-x, y, -z'
6 'x, -y, -z'
7 'x, y, -z'
8 '-x, -y, -z'
9 '-y, -x, z'
10 'y, x, z'
11 'y, -x, z'
12 '-y, x, z'
13 'x, -y, z'
14 '-x, y, z'
15 '-x, -y, z'
16 'x, y, z'
loop_
_atom_type_symbol
_atom_type_oxidation_number
Fe2+ 2
Se2- -2
loop_
_atom_site_label
_atom_site_type_symbol
_atom_site_symmetry_multiplicity
_atom_site_Wyckoff_symbol
_atom_site_fract_x
_atom_site_fract_y
_atom_site_fract_z
_atom_site_B_iso_or_equiv
_atom_site_occupancy
_atom_site_attached_hydrogens
Fe1 Fe2+ 1 a 0 0 0 . 1. 0
Se1 Se2- 1 d 0.5 0.5 0.5 . 1. 0
#End of TTdata_53543-ICSD