
data_53655-ICSD
_database_code_ICSD 53655
_audit_creation_date 2003-04-01
_audit_update_record 2011-08-01
_chemical_name_systematic 'Iridium germanide (1/4)'
_chemical_formula_structural 'Ir Ge4'
_chemical_formula_sum 'Ge4 Ir1'
_chemical_name_structure_type IrGe4
_exptl_crystal_density_diffrn 9.25
_cell_length_a 6.215
_cell_length_b 6.215
_cell_length_c 7.784
_cell_angle_alpha 90.
_cell_angle_beta 90.
_cell_angle_gamma 120.
_cell_volume 260.38
_cell_formula_units_Z 3
_symmetry_space_group_name_H-M 'P 31 2 1'
_symmetry_Int_Tables_number 152
_refine_ls_R_factor_all 0.147
loop_
_symmetry_equiv_pos_site_id
_symmetry_equiv_pos_as_xyz
1 'x-y, -y, -z+2/3'
2 '-x, -x+y, -z+1/3'
3 'y, x, -z'
4 '-x+y, -x, z+2/3'
5 '-y, x-y, z+1/3'
6 'x, y, z'
loop_
_atom_type_symbol
_atom_type_oxidation_number
Ir0+ 0
Ge0+ 0
loop_
_atom_site_label
_atom_site_type_symbol
_atom_site_symmetry_multiplicity
_atom_site_Wyckoff_symbol
_atom_site_fract_x
_atom_site_fract_y
_atom_site_fract_z
_atom_site_B_iso_or_equiv
_atom_site_occupancy
_atom_site_attached_hydrogens
Ir1 Ir0+ 3 a 0.318 0. 0.3333 . 1. 0
Ge1 Ge0+ 3 b 0.077 0. 0.8333 . 1. 0
Ge2 Ge0+ 3 b 0.61 0. 0.8333 . 1. 0
Ge3 Ge0+ 6 c 0.489 0.221 0.056 . 1. 0
