
#(C) 2017 by FIZ Karlsruhe - Leibniz Institute for Information Infrastructure.  All rights reserved.
data_53678-ICSD
_database_code_ICSD 53678
_audit_creation_date 2003-04-01
_chemical_name_systematic 'Lithium zinc germanide (2/1/1)'
_chemical_formula_structural 'Li2 Zn Ge'
_chemical_formula_sum 'Ge1 Li2 Zn1'
_chemical_name_structure_type Li2ZnSi
_exptl_crystal_density_diffrn 3.78
_publ_section_title
'Struktur- und Phasenuebergangsuntersuchungen an beta-Li2 Zn Ge'
loop_
_citation_id
_citation_journal_full
_citation_year
_citation_journal_volume
_citation_page_first
_citation_page_last
_citation_journal_id_ASTM
primary

;
Zeitschrift fuer Naturforschung, Teil B. Anorganische Chemie, Organische
Chemie (33,1978-41,1986)
; 1981 36 917 921 ZNBAD2
loop_
_publ_author_name
'Cullmann, H.O.'
'Hinterkeuser, H.W.'
'Schuster, H.U.'
_cell_length_a 4.326
_cell_length_b 4.326
_cell_length_c 16.47
_cell_angle_alpha 90.
_cell_angle_beta 90.
_cell_angle_gamma 120.
_cell_volume 266.93
_cell_formula_units_Z 4
_symmetry_space_group_name_H-M 'P -3 m 1'
_symmetry_Int_Tables_number 164
_refine_ls_R_factor_all 0.064
loop_
_symmetry_equiv_pos_site_id
_symmetry_equiv_pos_as_xyz
1 'x-y, -y, -z'
2 '-x, -x+y, -z'
3 'y, x, -z'
4 'x-y, x, -z'
5 'y, -x+y, -z'
6 '-x, -y, -z'
7 '-x+y, y, z'
8 'x, x-y, z'
9 '-y, -x, z'
10 '-x+y, -x, z'
11 '-y, x-y, z'
12 'x, y, z'
loop_
_atom_type_symbol
_atom_type_oxidation_number
Li0+ 0
Zn0+ 0
Ge0+ 0
loop_
_atom_site_label
_atom_site_type_symbol
_atom_site_symmetry_multiplicity
_atom_site_Wyckoff_symbol
_atom_site_fract_x
_atom_site_fract_y
_atom_site_fract_z
_atom_site_B_iso_or_equiv
_atom_site_occupancy
_atom_site_attached_hydrogens
Li1 Li0+ 2 d 0.3333 0.6667 0.0265 0.01 1. 0
Li2 Li0+ 2 d 0.3333 0.6667 0.2159 0.01 1. 0
Li3 Li0+ 2 d 0.3333 0.6667 0.5572 0.01 1. 0
Li4 Li0+ 2 d 0.3333 0.6667 0.7102 0.01 1. 0
Zn1 Zn0+ 2 c 0 0 0.1355 0.011 1. 0
Zn2 Zn0+ 2 c 0 0 0.3855 0.014 1. 0
Ge1 Ge0+ 2 d 0.3333 0.6667 0.3758 0.0049 1. 0
Ge2 Ge0+ 2 d 0.3333 0.6667 0.8752 0.0068 1. 0
#End of TTdata_53678-ICSD