
#(C) 2017 by FIZ Karlsruhe - Leibniz Institute for Information Infrastructure.  All rights reserved.
data_53857-ICSD
_database_code_ICSD 53857
_audit_creation_date 2003-04-01
_chemical_name_systematic 'Nickel scandium germanide (4/3/4)'
_chemical_formula_structural 'Ni4 Sc3 Ge4'
_chemical_formula_sum 'Ge4 Ni4 Sc3'
_chemical_name_structure_type Cu4Zr3Si4
_exptl_crystal_density_diffrn 6.59
_publ_section_title

;
Nickel scandium germanide Sc3 Ni4 Ge4: A new ternary germanide with the Gd6
Cu8 Ge8 - type structure
;
loop_
_citation_id
_citation_journal_full
_citation_year
_citation_journal_volume
_citation_page_first
_citation_page_last
_citation_journal_id_ASTM
primary 'Acta Crystallographica B (24,1968-38,1982)' 1982 38 917 918 ACBCAR
loop_
_publ_author_name
'Kotur, B.Ya.'
'Sikirica, M.'
_cell_length_a 12.910(1)
_cell_length_b 6.598(4)
_cell_length_c 3.908(2)
_cell_angle_alpha 90.
_cell_angle_beta 90.
_cell_angle_gamma 90.
_cell_volume 332.88
_cell_formula_units_Z 2
_symmetry_space_group_name_H-M 'I m m m'
_symmetry_Int_Tables_number 71
_refine_ls_R_factor_all 0.042
loop_
_symmetry_equiv_pos_site_id
_symmetry_equiv_pos_as_xyz
1 'x, y, -z'
2 'x, -y, z'
3 '-x, y, z'
4 '-x, -y, -z'
5 '-x, -y, z'
6 '-x, y, -z'
7 'x, -y, -z'
8 'x, y, z'
9 'x+1/2, y+1/2, -z+1/2'
10 'x+1/2, -y+1/2, z+1/2'
11 '-x+1/2, y+1/2, z+1/2'
12 '-x+1/2, -y+1/2, -z+1/2'
13 '-x+1/2, -y+1/2, z+1/2'
14 '-x+1/2, y+1/2, -z+1/2'
15 'x+1/2, -y+1/2, -z+1/2'
16 'x+1/2, y+1/2, z+1/2'
loop_
_atom_type_symbol
_atom_type_oxidation_number
Ni0+ 0
Sc0+ 0
Ge0+ 0
loop_
_atom_site_label
_atom_site_type_symbol
_atom_site_symmetry_multiplicity
_atom_site_Wyckoff_symbol
_atom_site_fract_x
_atom_site_fract_y
_atom_site_fract_z
_atom_site_B_iso_or_equiv
_atom_site_occupancy
_atom_site_attached_hydrogens
Ni1 Ni0+ 8 n 0.3231(2) 0.1960(3) 0 0.39(3) 1. 0
Sc1 Sc0+ 2 d 0.5 0 0.5 0.564(6) 1. 0
Sc2 Sc0+ 4 e 0.1266(3) 0 0 0.35(4) 1. 0
Ge1 Ge0+ 4 f 0.2189(2) 0.5 0 0.373(5) 1. 0
Ge2 Ge0+ 4 h 0 0.1941(4) 0.5 0.32(4) 1. 0
#End of TTdata_53857-ICSD