
#(C) 2017 by FIZ Karlsruhe - Leibniz Institute for Information Infrastructure.  All rights reserved.
data_53861-ICSD
_database_code_ICSD 53861
_audit_creation_date 2003-04-01
_chemical_name_systematic 'Nickel tantalum germanide (1/1/1)'
_chemical_formula_structural 'Ni Ta Ge'
_chemical_formula_sum 'Ge1 Ni1 Ta1'
_chemical_name_structure_type TiNiSi-MgSrSi
_exptl_crystal_density_diffrn 12.27
_publ_section_title 'Neue E-Phasen'
loop_
_citation_id
_citation_journal_full
_citation_year
_citation_journal_volume
_citation_page_first
_citation_page_last
_citation_journal_id_ASTM
primary 'Monatshefte fuer Chemie' 1967 98 95 99 MOCHAP
loop_
_publ_author_name
'Ganglberger, E.'
'Nowotny, H.N.'
'Benesowsky, F.'
_cell_length_a 6.27
_cell_length_b 3.76
_cell_length_c 7.17
_cell_angle_alpha 90.
_cell_angle_beta 90.
_cell_angle_gamma 90.
_cell_volume 169.03
_cell_formula_units_Z 4
_symmetry_space_group_name_H-M 'P n m a'
_symmetry_Int_Tables_number 62
_refine_ls_R_factor_all 0.15
loop_
_symmetry_equiv_pos_site_id
_symmetry_equiv_pos_as_xyz
1 'x+1/2, y, -z+1/2'
2 'x, -y+1/2, z'
3 '-x+1/2, y+1/2, z+1/2'
4 '-x, -y, -z'
5 '-x+1/2, -y, z+1/2'
6 '-x, y+1/2, -z'
7 'x+1/2, -y+1/2, -z+1/2'
8 'x, y, z'
loop_
_atom_type_symbol
_atom_type_oxidation_number
Ni0+ 0
Ta0+ 0
Ge0+ 0
loop_
_atom_site_label
_atom_site_type_symbol
_atom_site_symmetry_multiplicity
_atom_site_Wyckoff_symbol
_atom_site_fract_x
_atom_site_fract_y
_atom_site_fract_z
_atom_site_B_iso_or_equiv
_atom_site_occupancy
_atom_site_attached_hydrogens
Ni1 Ni0+ 4 c 0.1678 0.25 0.4291 . 1. 0
Ta1 Ta0+ 4 c 0.0197 0.25 0.8199 . 1. 0
Ge1 Ge0+ 4 c 0.775 0.25 0.376 . 1. 0
#End of TTdata_53861-ICSD