
#(C) 2017 by FIZ Karlsruhe - Leibniz Institute for Information Infrastructure.  All rights reserved.
data_54909-ICSD
_database_code_ICSD 54909
_audit_creation_date 2005-10-01
_audit_update_record 2008-02-01
_chemical_name_systematic 'Tin oxalate'
_chemical_formula_structural 'Sn (C2 O4)'
_chemical_formula_sum 'C2 O4 Sn1'
_exptl_crystal_density_diffrn 3.58
_publ_section_title 'Tin(II) oxalate structures'
loop_
_citation_id
_citation_journal_full
_citation_year
_citation_journal_volume
_citation_page_first
_citation_page_last
_citation_journal_id_ASTM
primary 'Inorganica Chimica Acta' 1979 36 L447 L448 ICHAA3
loop_
_publ_author_name
'Christie, A.D.'
'Howie, R.A.'
'Moser, W.'
_cell_length_a 10.342(7)
_cell_length_b 5.497(4)
_cell_length_c 8.776(9)
_cell_angle_alpha 90.
_cell_angle_beta 129.81(5)
_cell_angle_gamma 90.
_cell_volume 383.25
_cell_formula_units_Z 4
_symmetry_space_group_name_H-M 'C 1 2/c 1'
_symmetry_Int_Tables_number 15
_refine_ls_R_factor_all 0.038
loop_
_symmetry_equiv_pos_site_id
_symmetry_equiv_pos_as_xyz
1 'x, -y, z+1/2'
2 '-x, -y, -z'
3 '-x, y, -z+1/2'
4 'x, y, z'
5 'x+1/2, -y+1/2, z+1/2'
6 '-x+1/2, -y+1/2, -z'
7 '-x+1/2, y+1/2, -z+1/2'
8 'x+1/2, y+1/2, z'
loop_
_atom_type_symbol
_atom_type_oxidation_number
Sn2+ 2
C3+ 3
O2- -2
loop_
_atom_site_label
_atom_site_type_symbol
_atom_site_symmetry_multiplicity
_atom_site_Wyckoff_symbol
_atom_site_fract_x
_atom_site_fract_y
_atom_site_fract_z
_atom_site_B_iso_or_equiv
_atom_site_occupancy
_atom_site_attached_hydrogens
Sn1 Sn2+ 4 e 0 0.1299(2) 0.25 1.42(0) 1. 0
C1 C3+ 8 f 0.417(1) 0.047(2) 0.970(1) 1.50(13) 1. 0
O1 O2- 8 f 0.349(1) 0.223(1) 0.853(1) 2.18(11) 1. 0
O2 O2- 8 f 0.358(1) 0.061(1) 0.540(1) 1.94(10) 1. 0
#End of TTdata_54909-ICSD