
#(C) 2017 by FIZ Karlsruhe - Leibniz Institute for Information Infrastructure.  All rights reserved.
data_55075-ICSD
_database_code_ICSD 55075
_audit_creation_date 2005-04-01
_chemical_name_systematic 'Titanium selenide (5/4)'
_chemical_formula_structural 'Ti5 Se4'
_chemical_formula_sum 'Se4 Ti5'
_chemical_name_structure_type Ti5Te4
_exptl_crystal_density_diffrn 5.62
_publ_section_title
'Ti5 Se4: The first step of cluster condensation with titanium selenides'
loop_
_citation_id
_citation_journal_full
_citation_year
_citation_journal_volume
_citation_page_first
_citation_page_last
_citation_journal_id_ASTM
primary 'Zeitschrift fuer Anorganische und Allgemeine Chemie (1950) (DE)' 2004
630 535 540 ZAACAB
loop_
_publ_author_name
'He Meng'
'Simon, A.'
'Duppel, V.'
_cell_length_a 9.6728(1)
_cell_length_b 9.6728(1)
_cell_length_c 3.5083(1)
_cell_angle_alpha 90
_cell_angle_beta 90
_cell_angle_gamma 90
_cell_volume 328.25
_cell_formula_units_Z 2
_symmetry_space_group_name_H-M 'I 4/m'
_symmetry_Int_Tables_number 87
_refine_ls_R_factor_all 0.0509
loop_
_symmetry_equiv_pos_site_id
_symmetry_equiv_pos_as_xyz
1 '-y, x, -z'
2 'y, -x, -z'
3 'x, y, -z'
4 '-x, -y, -z'
5 'y, -x, z'
6 '-y, x, z'
7 '-x, -y, z'
8 'x, y, z'
9 '-y+1/2, x+1/2, -z+1/2'
10 'y+1/2, -x+1/2, -z+1/2'
11 'x+1/2, y+1/2, -z+1/2'
12 '-x+1/2, -y+1/2, -z+1/2'
13 'y+1/2, -x+1/2, z+1/2'
14 '-y+1/2, x+1/2, z+1/2'
15 '-x+1/2, -y+1/2, z+1/2'
16 'x+1/2, y+1/2, z+1/2'
loop_
_atom_type_symbol
_atom_type_oxidation_number
Ti0+ 0
Se0+ 0
loop_
_atom_site_label
_atom_site_type_symbol
_atom_site_symmetry_multiplicity
_atom_site_Wyckoff_symbol
_atom_site_fract_x
_atom_site_fract_y
_atom_site_fract_z
_atom_site_B_iso_or_equiv
_atom_site_occupancy
_atom_site_attached_hydrogens
Ti1 Ti0+ 2 a 0 0 0 0.5 1. 0
Ti2 Ti0+ 8 h 0.3065(6) 0.3758(7) 0 0.5 1. 0
Se1 Se0+ 8 h 0.0584(4) 0.2728(4) 0 0.5 1. 0
#End of TTdata_55075-ICSD