
#(C) 2017 by FIZ Karlsruhe - Leibniz Institute for Information Infrastructure.  All rights reserved.
data_55579-ICSD
_database_code_ICSD 55579
_audit_creation_date 2005-10-01
_chemical_name_systematic 'Aluminium platinum (3/5)'
_chemical_formula_structural 'Al3 Pt5'
_chemical_formula_sum 'Al3 Pt5'
_chemical_name_structure_type Ge3Rh5
_exptl_crystal_density_diffrn 15.35
_publ_section_title 'The structure of Al3 Pt5'
loop_
_citation_id
_citation_journal_full
_citation_year
_citation_journal_volume
_citation_page_first
_citation_page_last
_citation_journal_id_ASTM
primary 'Journal of Alloys and Compounds' 1996 244 194 196 JALCEU
loop_
_publ_author_name
'Bronger, W.'
'Wrzesien, K.'
_cell_length_a 5.402(1)
_cell_length_b 10.711(2)
_cell_length_c 3.949(1)
_cell_angle_alpha 90
_cell_angle_beta 90
_cell_angle_gamma 90
_cell_volume 228.49
_cell_formula_units_Z 2
_symmetry_space_group_name_H-M 'P b a m'
_symmetry_Int_Tables_number 55
_refine_ls_R_factor_all 0.051
loop_
_symmetry_equiv_pos_site_id
_symmetry_equiv_pos_as_xyz
1 'x+1/2, -y+1/2, z'
2 '-x+1/2, y+1/2, z'
3 'x, y, -z'
4 '-x, -y, -z'
5 '-x+1/2, y+1/2, -z'
6 'x+1/2, -y+1/2, -z'
7 '-x, -y, z'
8 'x, y, z'
loop_
_atom_type_symbol
_atom_type_oxidation_number
Pt0+ 0
Al0+ 0
loop_
_atom_site_label
_atom_site_type_symbol
_atom_site_symmetry_multiplicity
_atom_site_Wyckoff_symbol
_atom_site_fract_x
_atom_site_fract_y
_atom_site_fract_z
_atom_site_B_iso_or_equiv
_atom_site_occupancy
_atom_site_attached_hydrogens
Pt1 Pt0+ 2 c 0 0.5 0 . 1. 0
Pt2 Pt0+ 4 g 0.0640(5) 0.2344(2) 0 . 1. 0
Pt3 Pt0+ 4 h 0.2923(6) 0.3920(2) 0.5 . 1. 0
Al1 Al0+ 2 a 0 0 0 0.3(4) 1. 0
Al2 Al0+ 4 h 0.315(6) 0.141(2) 0.5 0.4(4) 1. 0
loop_
_atom_site_aniso_label
_atom_site_aniso_type_symbol
_atom_site_aniso_U_11
_atom_site_aniso_U_22
_atom_site_aniso_U_33
_atom_site_aniso_U_12
_atom_site_aniso_U_13
_atom_site_aniso_U_23
Pt1 Pt0+ 0.002(2) 0.006(1) 0.004(2) 0.003(1) 0. 0.
Pt2 Pt0+ 0.001(2) 0.006(1) 0.003(1) -.001(1) 0. 0.
Pt3 Pt0+ 0.002(1) 0.006(1) 0.003(1) 0.001(1) 0. 0.
#End of TTdata_55579-ICSD