
#(C) 2017 by FIZ Karlsruhe - Leibniz Institute for Information Infrastructure.  All rights reserved.
data_56279-ICSD
_database_code_ICSD 56279
_audit_creation_date 2003-04-01
_chemical_name_systematic 'Palladium bismuthide (1/1)'
_chemical_formula_structural 'Pd Bi'
_chemical_formula_sum 'Bi1 Pd1'
_chemical_name_structure_type BiPbPd2
_chemical_name_mineral 'Polarite (Pb-free)'
_exptl_crystal_density_diffrn 12.53
_publ_section_title

;
Structure of superconductores. X. Thermal, microscopic and X-ray investigation
of the bismuth-palladium system
;
loop_
_citation_id
_citation_journal_full
_citation_year
_citation_journal_volume
_citation_page_first
_citation_page_last
_citation_journal_id_ASTM
primary 'Zhurnal Eksperimental'noi i Teoreticheskoi Fiziki' 1957 5 1064 1072
ZETFA7
loop_
_publ_author_name
'Zhuravlev, N.N.'
_cell_length_a 8.707(2)
_cell_length_b 7.203(1)
_cell_length_c 10.662(1)
_cell_angle_alpha 90.
_cell_angle_beta 90.
_cell_angle_gamma 90.
_cell_volume 668.68
_cell_formula_units_Z 16
_symmetry_space_group_name_H-M 'C m c 21'
_symmetry_Int_Tables_number 36
loop_
_symmetry_equiv_pos_site_id
_symmetry_equiv_pos_as_xyz
1 'x, -y, z+1/2'
2 '-x, -y, z+1/2'
3 '-x, y, z'
4 'x, y, z'
5 'x+1/2, -y+1/2, z+1/2'
6 '-x+1/2, -y+1/2, z+1/2'
7 '-x+1/2, y+1/2, z'
8 'x+1/2, y+1/2, z'
loop_
_atom_type_symbol
_atom_type_oxidation_number
Bi0+ 0
Pd0+ 0
Bi0+ 0
loop_
_atom_site_label
_atom_site_type_symbol
_atom_site_symmetry_multiplicity
_atom_site_Wyckoff_symbol
_atom_site_fract_x
_atom_site_fract_y
_atom_site_fract_z
_atom_site_B_iso_or_equiv
_atom_site_occupancy
_atom_site_attached_hydrogens
Bi1 Bi0+ 4 a 0 0.108 0 . 1. 0
Bi2 Bi0+ 4 a 0 0.65 0 . 1. 0
Pd1 Pd0+ 4 a 0 0.108 0.725 . 1. 0
Pd2 Pd0+ 4 a 0 0.65 0.725 . 1. 0
Pd3 Pd0+ 8 b 0.274 0.125 0.553 . 1. 0
Bi3 Bi0+ 8 b 0.274 0.125 0.278 . 1. 0
#End of TTdata_56279-ICSD