
#(C) 2017 by FIZ Karlsruhe - Leibniz Institute for Information Infrastructure.  All rights reserved.
data_56604-ICSD
_database_code_ICSD 56604
_audit_creation_date 2003-04-01
_audit_update_record 2016-02-01
_chemical_name_systematic 'Germanium telluride (1/1) - III, HP'
_chemical_formula_structural 'Ge Te'
_chemical_formula_sum 'Ge1 Te1'
_exptl_crystal_density_diffrn 8.56
_cell_measurement_pressure 35500000.
_publ_section_title
'Structural and electrical properties of Ge Se and Ge Te at high pressure'
loop_
_citation_id
_citation_journal_full
_citation_year
_citation_journal_volume
_citation_page_first
_citation_page_last
_citation_journal_id_ASTM
primary 'Physical Review, Serie 3. B - Condensed Matter (18,1978-)' 1997 56 7935
7941 PRBMDO
loop_
_publ_author_name
'Onodera, A.'
'Sakamoto, I.'
'Fujii, Y.'
'Mori, N.'
'Sugai, S.'
_cell_length_a 7.441(6)
_cell_length_b 7.678(22)
_cell_length_c 5.435(6)
_cell_angle_alpha 90.
_cell_angle_beta 90.
_cell_angle_gamma 90.
_cell_volume 310.51
_cell_formula_units_Z 8
_symmetry_space_group_name_H-M 'P b c n'
_symmetry_Int_Tables_number 60
loop_
_symmetry_equiv_pos_site_id
_symmetry_equiv_pos_as_xyz
1 'x, -y, z+1/2'
2 '-x+1/2, y+1/2, z'
3 'x+1/2, y+1/2, -z+1/2'
4 '-x, -y, -z'
5 '-x, y, -z+1/2'
6 'x+1/2, -y+1/2, -z'
7 '-x+1/2, -y+1/2, z+1/2'
8 'x, y, z'
loop_
_atom_type_symbol
_atom_type_oxidation_number
Ge2+ 2
Te2- -2
loop_
_atom_site_label
_atom_site_type_symbol
_atom_site_symmetry_multiplicity
_atom_site_Wyckoff_symbol
_atom_site_fract_x
_atom_site_fract_y
_atom_site_fract_z
_atom_site_B_iso_or_equiv
_atom_site_occupancy
_atom_site_attached_hydrogens
Ge1 Ge2+ 8 d 0.31 0.21 0.14 . 1. 0
Te1 Te2- 8 d -.13 0.09 -.14 . 1. 0
#End of TTdata_56604-ICSD