
#(C) 2017 by FIZ Karlsruhe - Leibniz Institute for Information Infrastructure.  All rights reserved.
data_56769-ICSD
_database_code_ICSD 56769
_audit_creation_date 2003-04-01
_audit_update_record 2007-04-01
_chemical_name_systematic 'Calcium chloride'
_chemical_formula_structural 'Ca Cl2'
_chemical_formula_sum 'Ca1 Cl2'
_chemical_name_structure_type PbO2-alpha
_exptl_crystal_density_diffrn 2.23
_publ_section_title

;
Die Dynamik der Phasenumwandlung vom Rutil- in den Ca Cl2- Typ am Beispiel des
Ca Br2 and zur Polymorphie des Ca Cl2
;
loop_
_citation_id
_citation_journal_full
_citation_year
_citation_journal_volume
_citation_page_first
_citation_page_last
_citation_journal_id_ASTM
primary 'Dissertation Universitaet Karlsruhe' 1985 1985 1 195 DIKARM
loop_
_publ_author_name
'Anselment, B.'
_cell_length_a 6.268(6)
_cell_length_b 7.619(6)
_cell_length_c 6.923(4)
_cell_angle_alpha 90.
_cell_angle_beta 90.
_cell_angle_gamma 90.
_cell_volume 330.61
_cell_formula_units_Z 4
_symmetry_space_group_name_H-M 'P b c n'
_symmetry_Int_Tables_number 60
_refine_ls_R_factor_all 0.0679
loop_
_symmetry_equiv_pos_site_id
_symmetry_equiv_pos_as_xyz
1 'x, -y, z+1/2'
2 '-x+1/2, y+1/2, z'
3 'x+1/2, y+1/2, -z+1/2'
4 '-x, -y, -z'
5 '-x, y, -z+1/2'
6 'x+1/2, -y+1/2, -z'
7 '-x+1/2, -y+1/2, z+1/2'
8 'x, y, z'
loop_
_atom_type_symbol
_atom_type_oxidation_number
Ca2+ 2
Cl1- -1
loop_
_atom_site_label
_atom_site_type_symbol
_atom_site_symmetry_multiplicity
_atom_site_Wyckoff_symbol
_atom_site_fract_x
_atom_site_fract_y
_atom_site_fract_z
_atom_site_B_iso_or_equiv
_atom_site_occupancy
_atom_site_attached_hydrogens
Ca1 Ca2+ 4 c 0 0.1540(8) 0.25 2.15(27) 1. 0
Cl1 Cl1- 8 d 0.2625(9) 0.3911(6) 0.4216(9) 2.53(23) 1. 0
loop_
_atom_site_aniso_label
_atom_site_aniso_type_symbol
_atom_site_aniso_U_11
_atom_site_aniso_U_22
_atom_site_aniso_U_33
_atom_site_aniso_U_12
_atom_site_aniso_U_13
_atom_site_aniso_U_23
Ca1 Ca2+ 0.0237(32) 0.0352(36) 0.0229(34) 0 0 -0.0006(46)
Cl1 Cl1- 0.0243(26) 0.0442(29) 0.0279(31) -0.0102(27) -0.0002(34) -0.0138(30)
#End of TTdata_56769-ICSD