
#(C) 2017 by FIZ Karlsruhe - Leibniz Institute for Information Infrastructure.  All rights reserved.
data_56973-ICSD
_database_code_ICSD 56973
_audit_creation_date 2004-04-01
_audit_update_record 2012-08-01
_chemical_name_systematic 'Gallium rhodium arsenide (2/5/1)'
_chemical_formula_structural 'Ga2 Rh5 As'
_chemical_formula_sum 'As1 Ga2 Rh5'
_chemical_name_structure_type Ge3Rh5
_exptl_crystal_density_diffrn 10.66
_publ_section_title

;
The crystal structures of two ternary Mx (Ga,As)y phases (M= Rh, Pd) with Rh5
Ge3- and Cr12 P7-type derivative structures
;
loop_
_citation_id
_citation_journal_full
_citation_year
_citation_journal_volume
_citation_page_first
_citation_page_last
_citation_journal_id_ASTM
primary 'Journal of the Less-Common Metals' 1991 171 357 368 JCOMAH
loop_
_publ_author_name
'Deputier, S.'
'Pivan, J.Y.'
'Guerin, R.'
_cell_length_a 5.463(4)
_cell_length_b 10.215(8)
_cell_length_c 4.019(3)
_cell_angle_alpha 90.
_cell_angle_beta 90.
_cell_angle_gamma 90.
_cell_volume 224.28
_cell_formula_units_Z 2
_symmetry_space_group_name_H-M 'P b a m'
_symmetry_Int_Tables_number 55
_refine_ls_R_factor_all 0.06
loop_
_symmetry_equiv_pos_site_id
_symmetry_equiv_pos_as_xyz
1 'x+1/2, -y+1/2, z'
2 '-x+1/2, y+1/2, z'
3 'x, y, -z'
4 '-x, -y, -z'
5 '-x+1/2, y+1/2, -z'
6 'x+1/2, -y+1/2, -z'
7 '-x, -y, z'
8 'x, y, z'
loop_
_atom_type_symbol
_atom_type_oxidation_number
Rh0+ 0
Ga0+ 0
As0+ 0
loop_
_atom_site_label
_atom_site_type_symbol
_atom_site_symmetry_multiplicity
_atom_site_Wyckoff_symbol
_atom_site_fract_x
_atom_site_fract_y
_atom_site_fract_z
_atom_site_B_iso_or_equiv
_atom_site_occupancy
_atom_site_attached_hydrogens
Rh1 Rh0+ 2 a 0 0 0 0.78(3) 1. 0
Rh2 Rh0+ 4 g 0.6358(3) 0.2243(1) 0 0.67(2) 1. 0
Rh3 Rh0+ 4 h 0.3318(3) 0.1036(1) 0.5 0.69(2) 1. 0
Ga1 Ga0+ 4 h 0.3869(4) 0.3503(2) 0.5 0.79(3) 1. 0
As1 As0+ 2 c 0 0.5 0 0.85(5) 1. 0
loop_
_atom_site_aniso_label
_atom_site_aniso_type_symbol
_atom_site_aniso_beta_11
_atom_site_aniso_beta_22
_atom_site_aniso_beta_33
_atom_site_aniso_beta_12
_atom_site_aniso_beta_13
_atom_site_aniso_beta_23
Rh1 Rh0+ 0.0089(5) 0.0009(1) 0.014(1) 0.0004(3) 0 0
Rh2 Rh0+ 0.0045(3) 0.0009(1) 0.0169(3) -.0004(2) 0 0
Rh3 Rh0+ 0.0065(3) 0.0115(8) 0.0123(8) 0.0006(2) 0 0
Ga1 Ga0+ 0.0069(5) 0.0012(1) 0.016(1) -.0012(3) 0 0
As1 As0+ 0.0117(8) 0.0008(2) 0.013(2) 0.0003(4) 0 0
#End of TTdata_56973-ICSD