
#(C) 2017 by FIZ Karlsruhe - Leibniz Institute for Information Infrastructure.  All rights reserved.
data_56982-ICSD
_database_code_ICSD 56982
_audit_creation_date 2004-04-01
_chemical_name_systematic 'Silver calcium antimonide'
_chemical_formula_structural 'Ag Ca Sb'
_chemical_formula_sum 'Ag1 Ca1 Sb1'
_chemical_name_structure_type TiNiSi-MgSrSi
_exptl_crystal_density_diffrn 6.03
_publ_section_title

;
RMX compounds formed ba alkaline earths, europium and ytterbium. I. Ternary
phases with M= Cu, Ag, Au; X= Sb, Bi
;
loop_
_citation_id
_citation_journal_full
_citation_year
_citation_journal_volume
_citation_page_first
_citation_page_last
_citation_journal_id_ASTM
primary 'Journal of the Less-Common Metals' 1990 166 319 327 JCOMAH
loop_
_publ_author_name
'Merlo, F.'
'Pani, M.'
'Fornasini, M.L.'
_cell_length_a 7.708(1)
_cell_length_b 4.590(1)
_cell_length_c 8.393(1)
_cell_angle_alpha 90.
_cell_angle_beta 90.
_cell_angle_gamma 90.
_cell_volume 296.94
_cell_formula_units_Z 4
_symmetry_space_group_name_H-M 'P n m a'
_symmetry_Int_Tables_number 62
_refine_ls_R_factor_all 0.046
loop_
_symmetry_equiv_pos_site_id
_symmetry_equiv_pos_as_xyz
1 'x+1/2, y, -z+1/2'
2 'x, -y+1/2, z'
3 '-x+1/2, y+1/2, z+1/2'
4 '-x, -y, -z'
5 '-x+1/2, -y, z+1/2'
6 '-x, y+1/2, -z'
7 'x+1/2, -y+1/2, -z+1/2'
8 'x, y, z'
loop_
_atom_type_symbol
_atom_type_oxidation_number
Ag1+ 1
Ca2+ 2
Sb3- -3
loop_
_atom_site_label
_atom_site_type_symbol
_atom_site_symmetry_multiplicity
_atom_site_Wyckoff_symbol
_atom_site_fract_x
_atom_site_fract_y
_atom_site_fract_z
_atom_site_B_iso_or_equiv
_atom_site_occupancy
_atom_site_attached_hydrogens
Ag1 Ag1+ 4 c 0.1440(2) 0.25 0.0661(2) 0.0190(4) 1. 0
Ca1 Ca2+ 4 c 0.0173(5) 0.25 0.6967(5) 0.0113(9) 1. 0
Sb1 Sb3- 4 c 0.2592(1) 0.25 0.3887(1) 0.0080(3) 1. 0
#End of TTdata_56982-ICSD