
#(C) 2017 by FIZ Karlsruhe - Leibniz Institute for Information Infrastructure.  All rights reserved.
data_57497-ICSD
_database_code_ICSD 57497
_audit_creation_date 2004-10-01
_audit_update_record 2012-08-01
_chemical_name_systematic 'Aluminum gold (1/2)'
_chemical_formula_structural 'Al Au2'
_chemical_formula_sum 'Al1 Au2'
_exptl_crystal_density_diffrn 14.71
_publ_section_title
'Kristallstrukturen der Phasen Au2 Al (h), Au2 Al1-x (r) und Au2 Al1+x (r)'
loop_
_citation_id
_citation_journal_full
_citation_year
_citation_journal_volume
_citation_page_first
_citation_page_last
_citation_journal_id_ASTM
primary 'Journal of the Less-Common Metals' 1974 35 259 366 JCOMAH
loop_
_publ_author_name
'Puselj, M.'
'Schubert, K.'
_cell_length_a 8.801(3)
_cell_length_b 16.772(6)
_cell_length_c 3.219(1)
_cell_angle_alpha 90.
_cell_angle_beta 90.
_cell_angle_gamma 90.
_cell_volume 475.16
_cell_formula_units_Z 10
_symmetry_space_group_name_H-M 'P n n m'
_symmetry_Int_Tables_number 58
_refine_ls_R_factor_all 0.2
loop_
_symmetry_equiv_pos_site_id
_symmetry_equiv_pos_as_xyz
1 'x+1/2, -y+1/2, z+1/2'
2 '-x+1/2, y+1/2, z+1/2'
3 'x, y, -z'
4 '-x, -y, -z'
5 '-x+1/2, y+1/2, -z+1/2'
6 'x+1/2, -y+1/2, -z+1/2'
7 '-x, -y, z'
8 'x, y, z'
loop_
_atom_type_symbol
_atom_type_oxidation_number
Al0+ 0
Au0+ 0
loop_
_atom_site_label
_atom_site_type_symbol
_atom_site_symmetry_multiplicity
_atom_site_Wyckoff_symbol
_atom_site_fract_x
_atom_site_fract_y
_atom_site_fract_z
_atom_site_B_iso_or_equiv
_atom_site_occupancy
_atom_site_attached_hydrogens
Al1 Al0+ 2 a 0 0 0 1.26 1. 0
Al2 Al0+ 4 g 0.929 0.216 0 2.33 1. 0
Al3 Al0+ 4 g 0.058 0.403 0 3.7 1. 0
Au1 Au0+ 4 g 0.344 0.013 0 0.23 1. 0
Au2 Au0+ 4 g 0.352 0.19 0 0.12 1. 0
Au3 Au0+ 4 g 0.329 0.405 0 0.19 1. 0
Au4 Au0+ 4 g 0.357 0.604 0 0.1 1. 0
Au5 Au0+ 4 g 0.333 0.789 0 0.22 1. 0
#End of TTdata_57497-ICSD