
#(C) 2017 by FIZ Karlsruhe - Leibniz Institute for Information Infrastructure.  All rights reserved.
data_57727-ICSD
_database_code_ICSD 57727
_audit_creation_date 2005-04-01
_chemical_name_systematic 'Aluminum copper yttrium (8/4/1)'
_chemical_formula_structural 'Al8 Cu4 Y'
_chemical_formula_sum 'Al8 Cu4 Y1'
_chemical_name_structure_type ThMn12
_exptl_crystal_density_diffrn 4.73
_publ_section_title

;
Ternary compounds with a ThMn12 superstructure in the systems
yttrium-transition metal-aluminium
;
loop_
_citation_id
_citation_journal_full
_citation_year
_citation_journal_volume
_citation_page_first
_citation_page_last
_citation_journal_id_ASTM
primary 'Dopovidi Akademii Nauk Ukrains'koi RSR' 1966 1966 767 769 DUKRA4
loop_
_publ_author_name
'Zarechnyuk, O.S.'
_cell_length_a 8.72
_cell_length_b 8.72
_cell_length_c 5.16
_cell_angle_alpha 90.
_cell_angle_beta 90.
_cell_angle_gamma 90.
_cell_volume 392.36
_cell_formula_units_Z 2
_symmetry_space_group_name_H-M 'I 4/m m m'
_symmetry_Int_Tables_number 139
loop_
_symmetry_equiv_pos_site_id
_symmetry_equiv_pos_as_xyz
1 'y, x, -z'
2 '-y, -x, -z'
3 '-y, x, -z'
4 'y, -x, -z'
5 '-x, y, -z'
6 'x, -y, -z'
7 'x, y, -z'
8 '-x, -y, -z'
9 '-y, -x, z'
10 'y, x, z'
11 'y, -x, z'
12 '-y, x, z'
13 'x, -y, z'
14 '-x, y, z'
15 '-x, -y, z'
16 'x, y, z'
17 'y+1/2, x+1/2, -z+1/2'
18 '-y+1/2, -x+1/2, -z+1/2'
19 '-y+1/2, x+1/2, -z+1/2'
20 'y+1/2, -x+1/2, -z+1/2'
21 '-x+1/2, y+1/2, -z+1/2'
22 'x+1/2, -y+1/2, -z+1/2'
23 'x+1/2, y+1/2, -z+1/2'
24 '-x+1/2, -y+1/2, -z+1/2'
25 '-y+1/2, -x+1/2, z+1/2'
26 'y+1/2, x+1/2, z+1/2'
27 'y+1/2, -x+1/2, z+1/2'
28 '-y+1/2, x+1/2, z+1/2'
29 'x+1/2, -y+1/2, z+1/2'
30 '-x+1/2, y+1/2, z+1/2'
31 '-x+1/2, -y+1/2, z+1/2'
32 'x+1/2, y+1/2, z+1/2'
loop_
_atom_type_symbol
_atom_type_oxidation_number
Al0+ 0
Cu0+ 0
Y0+ 0
loop_
_atom_site_label
_atom_site_type_symbol
_atom_site_symmetry_multiplicity
_atom_site_Wyckoff_symbol
_atom_site_fract_x
_atom_site_fract_y
_atom_site_fract_z
_atom_site_B_iso_or_equiv
_atom_site_occupancy
_atom_site_attached_hydrogens
Al1 Al0+ 8 i 0.365 0 0 . 1. 0
Al2 Al0+ 8 j 0.275 0.5 0 . 1. 0
Cu1 Cu0+ 8 f 0.25 0.25 0.25 . 1. 0
Y1 Y0+ 2 a 0 0 0 . 1. 0
#End of TTdata_57727-ICSD