
#(C) 2017 by FIZ Karlsruhe - Leibniz Institute for Information Infrastructure.  All rights reserved.
data_58013-ICSD
_database_code_ICSD 58013
_audit_creation_date 2003-10-01
_audit_update_record 2012-08-01
_chemical_name_systematic 'Aluminium niobium (1/2) - sigma'
_chemical_formula_structural 'Al Nb2'
_chemical_formula_sum 'Al1 Nb2'
_exptl_crystal_density_diffrn 6.89
_publ_section_title 'The structure of the sigma-phase Nb2 Al'
loop_
_citation_id
_citation_journal_full
_citation_year
_citation_journal_volume
_citation_page_first
_citation_page_last
_citation_journal_id_ASTM
primary 'Acta Crystallographica (1,1948-23,1967)' 1961 14 362 364 ACCRA9
loop_
_publ_author_name
'Brown, P.J.'
'Forsyth, J.B.'
_cell_length_a 9.943
_cell_length_b 9.943
_cell_length_c 5.186
_cell_angle_alpha 90.
_cell_angle_beta 90.
_cell_angle_gamma 90.
_cell_volume 512.7
_cell_formula_units_Z 10
_symmetry_space_group_name_H-M 'P 42/m n m'
_symmetry_Int_Tables_number 136
_refine_ls_R_factor_all 0.085
loop_
_symmetry_equiv_pos_site_id
_symmetry_equiv_pos_as_xyz
1 '-y+1/2, x+1/2, -z+1/2'
2 'y+1/2, -x+1/2, -z+1/2'
3 'y, x, -z'
4 '-y, -x, -z'
5 'y+1/2, -x+1/2, z+1/2'
6 '-y+1/2, x+1/2, z+1/2'
7 '-y, -x, z'
8 'y, x, z'
9 'x+1/2, -y+1/2, -z+1/2'
10 '-x+1/2, y+1/2, -z+1/2'
11 'x, y, -z'
12 '-x, -y, -z'
13 '-x+1/2, y+1/2, z+1/2'
14 'x+1/2, -y+1/2, z+1/2'
15 '-x, -y, z'
16 'x, y, z'
loop_
_atom_type_symbol
_atom_type_oxidation_number
Al0+ 0
Nb0+ 0
loop_
_atom_site_label
_atom_site_type_symbol
_atom_site_symmetry_multiplicity
_atom_site_Wyckoff_symbol
_atom_site_fract_x
_atom_site_fract_y
_atom_site_fract_z
_atom_site_B_iso_or_equiv
_atom_site_occupancy
_atom_site_attached_hydrogens
Al1 Al0+ 2 a 0 0 0 . 1. 0
Al2 Al0+ 8 i 0.0665(5) 0.2615(5) 0 . 1. 0
Nb1 Nb0+ 4 g 0.3965(3) 0.6035(3) 0 . 1. 0
Nb2 Nb0+ 8 i 0.5350(2) 0.1280(2) 0 . 1. 0
Nb3 Nb0+ 8 j 0.3180(2) 0.3180(2) 0.2520(7) . 1. 0
#End of TTdata_58013-ICSD