
#(C) 2017 by FIZ Karlsruhe - Leibniz Institute for Information Infrastructure.  All rights reserved.
data_58084-ICSD
_database_code_ICSD 58084
_audit_creation_date 2003-10-01
_audit_update_record 2011-08-01
_chemical_name_systematic 'Aluminium nickel zirconium (5/2/1)'
_chemical_formula_structural 'Al5 Ni2 Zr'
_chemical_formula_sum 'Al5 Ni2 Zr1'
_chemical_name_structure_type Al5Ni2Zr
_exptl_crystal_density_diffrn 4.88
_publ_section_title 'Crystal structure of the compound Zr Ni2 Al5'
loop_
_citation_id
_citation_journal_full
_citation_year
_citation_journal_volume
_citation_page_first
_citation_page_last
_citation_journal_id_ASTM
primary

;
Dopovidi Akademii Nauk Ukrains'koi RSR, Seriya A: Fiziko-Matematichni Ta
Tekhnichni Nauki
; 1982 44 78 81 DNUNDU
loop_
_publ_author_name
'Markiv, V.Ya.'
'Kripyakevich, P.I.'
'Belyavina, N.M.'
_cell_length_a 4.023(8)
_cell_length_b 4.023
_cell_length_c 14.44(3)
_cell_angle_alpha 90.
_cell_angle_beta 90.
_cell_angle_gamma 90.
_cell_volume 233.7
_cell_formula_units_Z 2
_symmetry_space_group_name_H-M 'I 4/m m m'
_symmetry_Int_Tables_number 139
_refine_ls_R_factor_all 0.116
loop_
_symmetry_equiv_pos_site_id
_symmetry_equiv_pos_as_xyz
1 'y, x, -z'
2 '-y, -x, -z'
3 '-y, x, -z'
4 'y, -x, -z'
5 '-x, y, -z'
6 'x, -y, -z'
7 'x, y, -z'
8 '-x, -y, -z'
9 '-y, -x, z'
10 'y, x, z'
11 'y, -x, z'
12 '-y, x, z'
13 'x, -y, z'
14 '-x, y, z'
15 '-x, -y, z'
16 'x, y, z'
17 'y+1/2, x+1/2, -z+1/2'
18 '-y+1/2, -x+1/2, -z+1/2'
19 '-y+1/2, x+1/2, -z+1/2'
20 'y+1/2, -x+1/2, -z+1/2'
21 '-x+1/2, y+1/2, -z+1/2'
22 'x+1/2, -y+1/2, -z+1/2'
23 'x+1/2, y+1/2, -z+1/2'
24 '-x+1/2, -y+1/2, -z+1/2'
25 '-y+1/2, -x+1/2, z+1/2'
26 'y+1/2, x+1/2, z+1/2'
27 'y+1/2, -x+1/2, z+1/2'
28 '-y+1/2, x+1/2, z+1/2'
29 'x+1/2, -y+1/2, z+1/2'
30 '-x+1/2, y+1/2, z+1/2'
31 '-x+1/2, -y+1/2, z+1/2'
32 'x+1/2, y+1/2, z+1/2'
loop_
_atom_type_symbol
_atom_type_oxidation_number
Al0+ 0
Ni0+ 0
Zr0+ 0
loop_
_atom_site_label
_atom_site_type_symbol
_atom_site_symmetry_multiplicity
_atom_site_Wyckoff_symbol
_atom_site_fract_x
_atom_site_fract_y
_atom_site_fract_z
_atom_site_B_iso_or_equiv
_atom_site_occupancy
_atom_site_attached_hydrogens
Al1 Al0+ 2 b 0 0 0.5 . 1. 0
Al2 Al0+ 8 g 0 0.5 0.149 . 1. 0
Ni1 Ni0+ 4 e 0 0 0.238 . 1. 0
Zr1 Zr0+ 2 a 0 0 0 . 1. 0
#End of TTdata_58084-ICSD