
#(C) 2017 by FIZ Karlsruhe - Leibniz Institute for Information Infrastructure.  All rights reserved.
data_58130-ICSD
_database_code_ICSD 58130
_audit_creation_date 2003-10-01
_audit_update_record 2012-08-01
_chemical_name_systematic 'Aluminium platinum (1/2) - HT'
_chemical_formula_structural 'Al Pt2'
_chemical_formula_sum 'Al1 Pt2'
_chemical_name_structure_type Co2Si
_exptl_crystal_density_diffrn 16.02
_publ_section_title
'Kristallstrukturen von Pt3 Ga(r) und einigen Phasen der Mischung Pt-Al'
loop_
_citation_id
_citation_journal_full
_citation_year
_citation_journal_volume
_citation_page_first
_citation_page_last
_citation_journal_id_ASTM
primary 'Journal of the Less-Common Metals' 1975 41 19 32 JCOMAH
loop_
_publ_author_name
'Chattopadhyay, T.K.'
'Schubert, K.'
_cell_length_a 5.4007(9)
_cell_length_b 4.0547(5)
_cell_length_c 7.8985(9)
_cell_angle_alpha 90.
_cell_angle_beta 90.
_cell_angle_gamma 90.
_cell_volume 172.96
_cell_formula_units_Z 4
_symmetry_space_group_name_H-M 'P n m a'
_symmetry_Int_Tables_number 62
_refine_ls_R_factor_all 0.16
loop_
_symmetry_equiv_pos_site_id
_symmetry_equiv_pos_as_xyz
1 'x+1/2, y, -z+1/2'
2 'x, -y+1/2, z'
3 '-x+1/2, y+1/2, z+1/2'
4 '-x, -y, -z'
5 '-x+1/2, -y, z+1/2'
6 '-x, y+1/2, -z'
7 'x+1/2, -y+1/2, -z+1/2'
8 'x, y, z'
loop_
_atom_type_symbol
_atom_type_oxidation_number
Al0+ 0
Pt0+ 0
loop_
_atom_site_label
_atom_site_type_symbol
_atom_site_symmetry_multiplicity
_atom_site_Wyckoff_symbol
_atom_site_fract_x
_atom_site_fract_y
_atom_site_fract_z
_atom_site_B_iso_or_equiv
_atom_site_occupancy
_atom_site_attached_hydrogens
Al1 Al0+ 4 c 0.72 0.25 0.59 . 1. 0
Pt1 Pt0+ 4 c 0.033 0.25 0.213 . 1. 0
Pt2 Pt0+ 4 c 0.169 0.25 0.57 . 1. 0
#End of TTdata_58130-ICSD