
#(C) 2017 by FIZ Karlsruhe - Leibniz Institute for Information Infrastructure.  All rights reserved.
data_58401-ICSD
_database_code_ICSD 58401
_audit_creation_date 2004-04-01
_chemical_name_systematic 'Gold calcium (1/3)'
_chemical_formula_structural 'Au Ca3'
_chemical_formula_sum 'Au1 Ca3'
_chemical_name_structure_type Cementite-Fe3C
_exptl_crystal_density_diffrn 3.99
_publ_section_title

;
Structures of Ca3 Au, Ca5 Au2, Sr3 Au2, Ba3 Au2 and alloying behaviour of the
alkaline earths with Cu, Ag, Au
;
loop_
_citation_id
_citation_journal_full
_citation_year
_citation_journal_volume
_citation_page_first
_citation_page_last
_citation_journal_id_ASTM
primary 'Revue de Chimie Minerale' 1985 22 791 798 RVCMA8
loop_
_publ_author_name
'Fornasini, M.L.'
'Merlo, F.'
'Pani, M.'
_cell_length_a 7.795(4)
_cell_length_b 10.000(4)
_cell_length_c 6.780(2)
_cell_angle_alpha 90.
_cell_angle_beta 90.
_cell_angle_gamma 90.
_cell_volume 528.5
_cell_formula_units_Z 4
_symmetry_space_group_name_H-M 'P n m a'
_symmetry_Int_Tables_number 62
_refine_ls_R_factor_all 0.071
loop_
_symmetry_equiv_pos_site_id
_symmetry_equiv_pos_as_xyz
1 'x+1/2, y, -z+1/2'
2 'x, -y+1/2, z'
3 '-x+1/2, y+1/2, z+1/2'
4 '-x, -y, -z'
5 '-x+1/2, -y, z+1/2'
6 '-x, y+1/2, -z'
7 'x+1/2, -y+1/2, -z+1/2'
8 'x, y, z'
loop_
_atom_type_symbol
_atom_type_oxidation_number
Au0+ 0
Ca0+ 0
loop_
_atom_site_label
_atom_site_type_symbol
_atom_site_symmetry_multiplicity
_atom_site_Wyckoff_symbol
_atom_site_fract_x
_atom_site_fract_y
_atom_site_fract_z
_atom_site_B_iso_or_equiv
_atom_site_occupancy
_atom_site_attached_hydrogens
Au1 Au0+ 4 c 0.3786(3) 0.25 0.9483(3) 0.0271(9) 1. 0
Ca1 Ca0+ 4 c 0.0380(2) 0.25 0.1435(5) 0.021(4) 1. 0
Ca2 Ca0+ 8 d 0.1741(8) 0.0642(8) 0.6632(9) 0.020(3) 1. 0
#End of TTdata_58401-ICSD