
#(C) 2017 by FIZ Karlsruhe - Leibniz Institute for Information Infrastructure.  All rights reserved.
data_58406-ICSD
_database_code_ICSD 58406
_audit_creation_date 2004-04-01
_audit_update_record 2010-02-01
_chemical_name_systematic 'Gold calcium (4/5)'
_chemical_formula_structural 'Au4 Ca5'
_chemical_formula_sum 'Au4 Ca5'
_exptl_crystal_density_diffrn 6.99
_publ_section_title

;
Ca7 Au3 and Ca5 Au4, two structures closely related to the Th7 Fe3 and Pu5 Rh4
types
;
loop_
_citation_id
_citation_journal_full
_citation_year
_citation_journal_volume
_citation_page_first
_citation_page_last
_citation_journal_id_ASTM
primary 'Journal of Solid State Chemistry' 1985 59 65 70 JSSCBI
loop_
_publ_author_name
'Fornasini, M.L.'
'Merlo, F.'
_cell_length_a 8.028(3)
_cell_length_b 8.019(6)
_cell_length_c 7.727(3)
_cell_angle_alpha 90.
_cell_angle_beta 109.16(6)
_cell_angle_gamma 90.
_cell_volume 469.88
_cell_formula_units_Z 2
_symmetry_space_group_name_H-M 'P 1 21/c 1'
_symmetry_Int_Tables_number 14
_refine_ls_R_factor_all 0.104
loop_
_symmetry_equiv_pos_site_id
_symmetry_equiv_pos_as_xyz
1 'x, -y+1/2, z+1/2'
2 '-x, -y, -z'
3 '-x, y+1/2, -z+1/2'
4 'x, y, z'
loop_
_atom_type_symbol
_atom_type_oxidation_number
Au0+ 0
Ca0+ 0
loop_
_atom_site_label
_atom_site_type_symbol
_atom_site_symmetry_multiplicity
_atom_site_Wyckoff_symbol
_atom_site_fract_x
_atom_site_fract_y
_atom_site_fract_z
_atom_site_B_iso_or_equiv
_atom_site_occupancy
_atom_site_attached_hydrogens
Au1 Au0+ 4 e 0.9884(4) 0.1301(3) 0.3712(3) 0.019(1) 1. 0
Au2 Au0+ 4 e 0.4192(4) 0.0329(3) 0.1433(3) 0.020(1) 1. 0
Ca1 Ca0+ 2 a 0 0 0 0.019(3) 1. 0
Ca2 Ca0+ 4 e 0.692(1) 0.320(1) 0.069(1) 0.019(2) 1. 0
Ca3 Ca0+ 4 e 0.255(2) 0.332(1) 0.252(1) 0.023(2) 1. 0
#End of TTdata_58406-ICSD