
#(C) 2017 by FIZ Karlsruhe - Leibniz Institute for Information Infrastructure.  All rights reserved.
data_58429-ICSD
_database_code_ICSD 58429
_audit_creation_date 2004-04-01
_audit_update_record 2011-08-01
_chemical_name_systematic 'Gold copper (1/1)'
_chemical_formula_structural 'Au Cu'
_chemical_formula_sum 'Au1 Cu1'
_exptl_crystal_density_diffrn 14.98
_publ_section_title

;
Lattice modulation in the long period ordered alloys studied by X-ray
diffraction. II. Au CuII
;
loop_
_citation_id
_citation_journal_full
_citation_year
_citation_journal_volume
_citation_page_first
_citation_page_last
_citation_journal_id_ASTM
primary 'Journal of the Physical Society of Japan' 1968 24 569 579 JUPSAU
loop_
_publ_author_name
'Okamura, K.'
'Iwasaki, H.'
'Ogawa, S.'
_cell_length_a 3.676(2)
_cell_length_b 3.956(3)
_cell_length_c 39.72(2)
_cell_angle_alpha 90.
_cell_angle_beta 90.
_cell_angle_gamma 90.
_cell_volume 577.62
_cell_formula_units_Z 20
_symmetry_space_group_name_H-M 'I m m a'
_symmetry_Int_Tables_number 74
_refine_ls_R_factor_all 0.107
loop_
_symmetry_equiv_pos_site_id
_symmetry_equiv_pos_as_xyz
1 '-x, y+1/2, -z'
2 '-x, -y+1/2, z'
3 '-x, y, z'
4 '-x, -y, -z'
5 'x, -y+1/2, z'
6 'x, y+1/2, -z'
7 'x, -y, -z'
8 'x, y, z'
9 '-x+1/2, y, -z+1/2'
10 '-x+1/2, -y, z+1/2'
11 '-x+1/2, y+1/2, z+1/2'
12 '-x+1/2, -y+1/2, -z+1/2'
13 'x+1/2, -y, z+1/2'
14 'x+1/2, y, -z+1/2'
15 'x+1/2, -y+1/2, -z+1/2'
16 'x+1/2, y+1/2, z+1/2'
loop_
_atom_type_symbol
_atom_type_oxidation_number
Au0+ 0
Cu0+ 0
loop_
_atom_site_label
_atom_site_type_symbol
_atom_site_symmetry_multiplicity
_atom_site_Wyckoff_symbol
_atom_site_fract_x
_atom_site_fract_y
_atom_site_fract_z
_atom_site_B_iso_or_equiv
_atom_site_occupancy
_atom_site_attached_hydrogens
Au1 Au0+ 4 e 0 0.25 0.0249 . 1. 0
Au2 Au0+ 4 e 0 0.25 0.9252 . 1. 0
Au3 Au0+ 4 e 0 0.25 0.1248 . 1. 0
Au4 Au0+ 4 e 0 0.25 0.8258 . 1. 0
Au5 Au0+ 4 e 0 0.25 0.2238 . 1. 0
Cu1 Cu0+ 4 e 0 0.25 0.5258 . 1. 0
Cu2 Cu0+ 4 e 0 0.25 0.4243 . 1. 0
Cu3 Cu0+ 4 e 0 0.25 0.6258 . 1. 0
Cu4 Cu0+ 4 e 0 0.25 0.323 . 1. 0
Cu5 Cu0+ 4 e 0 0.25 0.7269 . 1. 0
#End of TTdata_58429-ICSD