
data_58459-ICSD
_database_code_ICSD 58459
_audit_creation_date 2004-04-01
_chemical_name_systematic 'Gold gallium (2/1)'
_chemical_formula_structural 'Au2 Ga'
_chemical_formula_sum 'Au2 Ga1'
_chemical_name_structure_type Pd2As
_exptl_crystal_density_diffrn 15.26
_cell_length_a 3.199(1)
_cell_length_b 18.023(3)
_cell_length_c 6.999(1)
_cell_angle_alpha 90.
_cell_angle_beta 90.
_cell_angle_gamma 90.
_cell_volume 403.53
_cell_formula_units_Z 8
_symmetry_space_group_name_H-M 'C m c 21'
_symmetry_Int_Tables_number 36
_refine_ls_R_factor_all 0.15
loop_
_symmetry_equiv_pos_site_id
_symmetry_equiv_pos_as_xyz
1 'x, -y, z+1/2'
2 '-x, -y, z+1/2'
3 '-x, y, z'
4 'x, y, z'
5 'x+1/2, -y+1/2, z+1/2'
6 '-x+1/2, -y+1/2, z+1/2'
7 '-x+1/2, y+1/2, z'
8 'x+1/2, y+1/2, z'
loop_
_atom_type_symbol
_atom_type_oxidation_number
Au0+ 0
Ga0+ 0
loop_
_atom_site_label
_atom_site_type_symbol
_atom_site_symmetry_multiplicity
_atom_site_Wyckoff_symbol
_atom_site_fract_x
_atom_site_fract_y
_atom_site_fract_z
_atom_site_B_iso_or_equiv
_atom_site_occupancy
_atom_site_attached_hydrogens
Au1 Au0+ 4 a 0 0.465 0 . 1. 0
Au2 Au0+ 4 a 0 0.321 0.406 . 1. 0
Au3 Au0+ 4 a 0 0.088 0.18 . 1. 0
Au4 Au0+ 4 a 0 0.171 0.548 . 1. 0
Ga1 Ga0+ 4 a 0 0.061 0.807 . 1. 0
Ga2 Ga0+ 4 a 0 0.291 0.771 . 1. 0
