
#(C) 2017 by FIZ Karlsruhe - Leibniz Institute for Information Infrastructure.  All rights reserved.
data_58542-ICSD
_database_code_ICSD 58542
_audit_creation_date 2004-04-01
_chemical_name_systematic 'Gold magnesium (1/3)'
_chemical_formula_structural 'Au Mg3'
_chemical_formula_sum 'Au1 Mg3'
_chemical_name_structure_type Fluocerite-LaF3(P3-c1)
_exptl_crystal_density_diffrn 5.68
_publ_section_title

;
Kristallstrukturuntersuchungen im System Au-Mg und einigen verwandten
Legierungen
;
loop_
_citation_id
_citation_journal_full
_citation_year
_citation_journal_volume
_citation_page_first
_citation_page_last
_citation_journal_id_ASTM
primary 'Metall (Berlin)' 1969 23 4 6 MTLLAF
loop_
_publ_author_name
'van Look, N.'
'Schubert, K.'
_cell_length_a 8.04
_cell_length_b 8.04
_cell_length_c 8.46
_cell_angle_alpha 90.
_cell_angle_beta 90.
_cell_angle_gamma 120.
_cell_volume 473.6
_cell_formula_units_Z 6
_symmetry_space_group_name_H-M 'P -3 c 1'
_symmetry_Int_Tables_number 165
loop_
_symmetry_equiv_pos_site_id
_symmetry_equiv_pos_as_xyz
1 'x-y, -y, -z+1/2'
2 '-x, -x+y, -z+1/2'
3 'y, x, -z+1/2'
4 'x-y, x, -z'
5 'y, -x+y, -z'
6 '-x, -y, -z'
7 '-x+y, y, z+1/2'
8 'x, x-y, z+1/2'
9 '-y, -x, z+1/2'
10 '-x+y, -x, z'
11 '-y, x-y, z'
12 'x, y, z'
loop_
_atom_type_symbol
_atom_type_oxidation_number
Au0+ 0
Mg0+ 0
loop_
_atom_site_label
_atom_site_type_symbol
_atom_site_symmetry_multiplicity
_atom_site_Wyckoff_symbol
_atom_site_fract_x
_atom_site_fract_y
_atom_site_fract_z
_atom_site_B_iso_or_equiv
_atom_site_occupancy
_atom_site_attached_hydrogens
Au1 Au0+ 6 f 0.66 0 0.25 . 1. 0
Mg1 Mg0+ 2 a 0 0 0.25 . 1. 0
Mg2 Mg0+ 4 d 0.3333 0.6667 0.18 . 1. 0
Mg3 Mg0+ 12 g 0.38 0.06 0.08 . 1. 0
#End of TTdata_58542-ICSD