
#(C) 2017 by FIZ Karlsruhe - Leibniz Institute for Information Infrastructure.  All rights reserved.
data_58540-ICSD
_database_code_ICSD 58540
_audit_creation_date 2004-04-01
_chemical_name_systematic 'Gold magnesium (1/2) - substructure'
_chemical_formula_structural 'Au Mg2'
_chemical_formula_sum 'Au1 Mg2'
_chemical_name_structure_type Co2Si
_exptl_crystal_density_diffrn 7.15
_publ_section_title 'Contribution to the system Mg-Au-Hg'
loop_
_citation_id
_citation_journal_full
_citation_year
_citation_journal_volume
_citation_page_first
_citation_page_last
_citation_journal_id_ASTM
primary 'Philips Journal of Research' 1984 39 275 292 PHJRD9
loop_
_publ_author_name
'Daams, J.L.C.'
'van Vucht, J.H.N.'
_cell_length_a 6.114(1)
_cell_length_b 4.520(1)
_cell_length_c 8.256(1)
_cell_angle_alpha 90.
_cell_angle_beta 90.
_cell_angle_gamma 90.
_cell_volume 228.16
_cell_formula_units_Z 4
_symmetry_space_group_name_H-M 'P n m a'
_symmetry_Int_Tables_number 62
_refine_ls_R_factor_all 0.149
loop_
_symmetry_equiv_pos_site_id
_symmetry_equiv_pos_as_xyz
1 'x+1/2, y, -z+1/2'
2 'x, -y+1/2, z'
3 '-x+1/2, y+1/2, z+1/2'
4 '-x, -y, -z'
5 '-x+1/2, -y, z+1/2'
6 '-x, y+1/2, -z'
7 'x+1/2, -y+1/2, -z+1/2'
8 'x, y, z'
loop_
_atom_type_symbol
_atom_type_oxidation_number
Au0+ 0
Mg0+ 0
loop_
_atom_site_label
_atom_site_type_symbol
_atom_site_symmetry_multiplicity
_atom_site_Wyckoff_symbol
_atom_site_fract_x
_atom_site_fract_y
_atom_site_fract_z
_atom_site_B_iso_or_equiv
_atom_site_occupancy
_atom_site_attached_hydrogens
Au1 Au0+ 4 c 0.284 0.25 0.101 . 1. 0
Mg1 Mg0+ 4 c 0.811 0.25 0.071 . 1. 0
Mg2 Mg0+ 4 c 0.468 0.25 0.775 . 1. 0
#End of TTdata_58540-ICSD