
data_58597-ICSD
_database_code_ICSD 58597
_audit_creation_date 2004-04-01
_audit_update_record 2007-04-01
_chemical_name_systematic 'Gold strontium (3/7)'
_chemical_formula_structural 'Au3 Sr7'
_chemical_formula_sum 'Au3 Sr7'
_chemical_name_structure_type Fe3Th7
_exptl_crystal_density_diffrn 5.26
_cell_length_a 11.07(1)
_cell_length_b 11.07
_cell_length_c 7.161(4)
_cell_angle_alpha 90.
_cell_angle_beta 90.
_cell_angle_gamma 120.
_cell_volume 759.98
_cell_formula_units_Z 2
_symmetry_space_group_name_H-M 'P 63 m c'
_symmetry_Int_Tables_number 186
_refine_ls_R_factor_all 0.065
loop_
_symmetry_equiv_pos_site_id
_symmetry_equiv_pos_as_xyz
1 '-x, -x+y, z+1/2'
2 'x-y, -y, z+1/2'
3 'y, x, z+1/2'
4 'x-y, x, z+1/2'
5 'y, -x+y, z+1/2'
6 '-x, -y, z+1/2'
7 'x, x-y, z'
8 '-x+y, y, z'
9 '-y, -x, z'
10 '-x+y, -x, z'
11 '-y, x-y, z'
12 'x, y, z'
loop_
_atom_type_symbol
_atom_type_oxidation_number
Au0+ 0
Sr0+ 0
loop_
_atom_site_label
_atom_site_type_symbol
_atom_site_symmetry_multiplicity
_atom_site_Wyckoff_symbol
_atom_site_fract_x
_atom_site_fract_y
_atom_site_fract_z
_atom_site_B_iso_or_equiv
_atom_site_occupancy
_atom_site_attached_hydrogens
Au1 Au0+ 6 c 0.8117(2) 0.1883 0.331(1) 0.047(1) 1. 0
Sr1 Sr0+ 2 b 0.3333 0.6667 0.045(3) 0.034(5) 1. 0
Sr2 Sr0+ 6 c 0.1253(4) 0.8747 0.25 0.031(2) 1. 0
Sr3 Sr0+ 6 c 0.5426(4) 0.4574 0.066(2) 0.034(3) 1. 0
