
#(C) 2017 by FIZ Karlsruhe - Leibniz Institute for Information Infrastructure.  All rights reserved.
data_58627-ICSD
_database_code_ICSD 58627
_audit_creation_date 2004-04-01
_chemical_name_systematic 'Gold zinc (3/1)'
_chemical_formula_structural 'Au3 Zn'
_chemical_formula_sum 'Au3 Zn1'
_chemical_name_structure_type Au3Zn
_exptl_crystal_density_diffrn 16.76
_publ_section_title
'Ueber die Kristallstrukturen von Au3 Zn (r), Au3 Zn5 und einigen Varianten'
loop_
_citation_id
_citation_journal_full
_citation_year
_citation_journal_volume
_citation_page_first
_citation_page_last
_citation_journal_id_ASTM
primary 'Zeitschrift fuer Metallkunde' 1958 49 633 646 ZEMTAE
loop_
_publ_author_name
'Wilkens, M.'
'Schubert, K.'
_cell_length_a 16.65
_cell_length_b 5.585
_cell_length_c 5.594
_cell_angle_alpha 90.
_cell_angle_beta 90.
_cell_angle_gamma 90.
_cell_volume 520.19
_cell_formula_units_Z 8
_symmetry_space_group_name_H-M 'C m c a'
_symmetry_Int_Tables_number 64
loop_
_symmetry_equiv_pos_site_id
_symmetry_equiv_pos_as_xyz
1 '-x, -y+1/2, z+1/2'
2 '-x, y+1/2, -z+1/2'
3 '-x, y, z'
4 '-x, -y, -z'
5 'x, y+1/2, -z+1/2'
6 'x, -y+1/2, z+1/2'
7 'x, -y, -z'
8 'x, y, z'
9 '-x+1/2, -y, z+1/2'
10 '-x+1/2, y, -z+1/2'
11 '-x+1/2, y+1/2, z'
12 '-x+1/2, -y+1/2, -z'
13 'x+1/2, y, -z+1/2'
14 'x+1/2, -y, z+1/2'
15 'x+1/2, -y+1/2, -z'
16 'x+1/2, y+1/2, z'
loop_
_atom_type_symbol
_atom_type_oxidation_number
Au0+ 0
Zn0+ 0
loop_
_atom_site_label
_atom_site_type_symbol
_atom_site_symmetry_multiplicity
_atom_site_Wyckoff_symbol
_atom_site_fract_x
_atom_site_fract_y
_atom_site_fract_z
_atom_site_B_iso_or_equiv
_atom_site_occupancy
_atom_site_attached_hydrogens
Au1 Au0+ 8 d 0.119 0 0 . 1. 0
Au2 Au0+ 8 e 0.25 0.25 0.25 . 1. 0
Au3 Au0+ 8 f 0 0.19 0.31 . 1. 0
Zn1 Zn0+ 8 d 0.367 0 0 . 1. 0
#End of TTdata_58627-ICSD