
#(C) 2017 by FIZ Karlsruhe - Leibniz Institute for Information Infrastructure.  All rights reserved.
data_58655-ICSD
_database_code_ICSD 58655
_audit_creation_date 2004-04-01
_audit_update_record 2013-02-01
_chemical_name_systematic 'Barium mercury (1/2)'
_chemical_formula_structural 'Ba Hg2'
_chemical_formula_sum 'Ba1 Hg2'
_chemical_name_structure_type CeCu2
_exptl_crystal_density_diffrn 9.99
_publ_section_title 'Alcuni composti intermetallici MX2 formati dal Ca, Sr e Ba'
loop_
_citation_id
_citation_journal_full
_citation_year
_citation_journal_volume
_citation_page_first
_citation_page_last
_citation_journal_id_ASTM
primary

;
Atti della Accademia Nazionale dei Lincei, Classe di Scienze Fisiche,
Matematiche e Naturali, Rendiconti, Serie 8 (1, 1946-)
; 1970 48 235 241 AANL8V
loop_
_publ_author_name
'Bruzzone, G.'
_cell_length_a 5.102
_cell_length_b 8.063
_cell_length_c 8.7
_cell_angle_alpha 90.
_cell_angle_beta 90.
_cell_angle_gamma 90.
_cell_volume 357.9
_cell_formula_units_Z 4
_symmetry_space_group_name_H-M 'I m m a'
_symmetry_Int_Tables_number 74
loop_
_symmetry_equiv_pos_site_id
_symmetry_equiv_pos_as_xyz
1 '-x, y+1/2, -z'
2 '-x, -y+1/2, z'
3 '-x, y, z'
4 '-x, -y, -z'
5 'x, -y+1/2, z'
6 'x, y+1/2, -z'
7 'x, -y, -z'
8 'x, y, z'
9 '-x+1/2, y, -z+1/2'
10 '-x+1/2, -y, z+1/2'
11 '-x+1/2, y+1/2, z+1/2'
12 '-x+1/2, -y+1/2, -z+1/2'
13 'x+1/2, -y, z+1/2'
14 'x+1/2, y, -z+1/2'
15 'x+1/2, -y+1/2, -z+1/2'
16 'x+1/2, y+1/2, z+1/2'
loop_
_atom_type_symbol
_atom_type_oxidation_number
Ba0+ 0
Hg0+ 0
loop_
_atom_site_label
_atom_site_type_symbol
_atom_site_symmetry_multiplicity
_atom_site_Wyckoff_symbol
_atom_site_fract_x
_atom_site_fract_y
_atom_site_fract_z
_atom_site_B_iso_or_equiv
_atom_site_occupancy
_atom_site_attached_hydrogens
Ba1 Ba0+ 4 e 0 0.25 0.55 . 1. 0
Hg1 Hg0+ 8 h 0 0.06 0.16 . 1. 0
#End of TTdata_58655-ICSD