
#(C) 2017 by FIZ Karlsruhe - Leibniz Institute for Information Infrastructure.  All rights reserved.
data_58689-ICSD
_database_code_ICSD 58689
_audit_creation_date 2004-04-01
_audit_update_record 2013-02-01
_chemical_name_systematic 'Calcium palladium indium (1/1/1)'
_chemical_formula_structural 'Ca Pd In'
_chemical_formula_sum 'Ca1 In1 Pd1'
_chemical_name_structure_type TiNiSi-MgSrSi
_exptl_crystal_density_diffrn 6.43
_publ_section_title

;
The four-connected net in the Ce Cu2 structure and its ternary derivatives.
Its electronic and structural properties
;
loop_
_citation_id
_citation_journal_full
_citation_year
_citation_journal_volume
_citation_page_first
_citation_page_last
_citation_journal_id_ASTM
primary 'Inorganic Chemistry' 1996 35 6922 6932 INOCAJ
loop_
_publ_author_name
'Nuspl, G.'
'Polborn, K.'
'Evers, J.'
'Landrum, G.A.'
'Hoffmann, R.'
_cell_length_a 7.299(3)
_cell_length_b 8.490(3)
_cell_length_c 4.359(3)
_cell_angle_alpha 90.
_cell_angle_beta 90.
_cell_angle_gamma 90.
_cell_volume 270.12
_cell_formula_units_Z 4
_symmetry_space_group_name_H-M 'P n a m'
_symmetry_Int_Tables_number 62
_refine_ls_R_factor_all 0.038
loop_
_symmetry_equiv_pos_site_id
_symmetry_equiv_pos_as_xyz
1 'x+1/2, -y+1/2, z'
2 'x, y, -z+1/2'
3 '-x+1/2, y+1/2, z+1/2'
4 '-x, -y, -z'
5 '-x+1/2, y+1/2, -z'
6 '-x, -y, z+1/2'
7 'x+1/2, -y+1/2, -z+1/2'
8 'x, y, z'
loop_
_atom_type_symbol
_atom_type_oxidation_number
Pd0+ 0
Ca0+ 0
In0+ 0
loop_
_atom_site_label
_atom_site_type_symbol
_atom_site_symmetry_multiplicity
_atom_site_Wyckoff_symbol
_atom_site_fract_x
_atom_site_fract_y
_atom_site_fract_z
_atom_site_B_iso_or_equiv
_atom_site_occupancy
_atom_site_attached_hydrogens
Pd1 Pd0+ 4 c 0.2683(2) 0.3712(2) 0.25 . 1. 0
Ca1 Ca0+ 4 c 0.0314(5) 0.6771(5) 0.25 . 1. 0
In1 In0+ 4 c 0.1453(2) 0.0622(2) 0.25 . 1. 0
#End of TTdata_58689-ICSD