
#(C) 2017 by FIZ Karlsruhe - Leibniz Institute for Information Infrastructure.  All rights reserved.
data_58717-ICSD
_database_code_ICSD 58717
_audit_creation_date 2004-04-01
_audit_update_record 2007-04-01
_chemical_name_systematic 'Beryllium molybdenum (12/1)'
_chemical_formula_structural 'Be12 Mo'
_chemical_formula_sum 'Be12 Mo1'
_chemical_name_structure_type ThMn12
_exptl_crystal_density_diffrn 3.04
_cell_measurement_temperature 295.
_publ_section_title
'The redetermination of of the structure of beryllium- molybdenum, Mo Be12'
loop_
_citation_id
_citation_journal_full
_citation_year
_citation_journal_volume
_citation_page_first
_citation_page_last
_citation_journal_id_ASTM
primary 'Acta Crystallographica, Section C: Crystal Structure Communications'
1984 40 914 915 ACSCEE
loop_
_publ_author_name
'Collins, D.M.'
'Mahar, M.C.'
_cell_length_a 7.251(2)
_cell_length_b 7.251
_cell_length_c 4.234(1)
_cell_angle_alpha 90.
_cell_angle_beta 90.
_cell_angle_gamma 90.
_cell_volume 222.61
_cell_formula_units_Z 2
_symmetry_space_group_name_H-M 'I 4/m m m'
_symmetry_Int_Tables_number 139
_refine_ls_R_factor_all 0.012
loop_
_symmetry_equiv_pos_site_id
_symmetry_equiv_pos_as_xyz
1 'y, x, -z'
2 '-y, -x, -z'
3 '-y, x, -z'
4 'y, -x, -z'
5 '-x, y, -z'
6 'x, -y, -z'
7 'x, y, -z'
8 '-x, -y, -z'
9 '-y, -x, z'
10 'y, x, z'
11 'y, -x, z'
12 '-y, x, z'
13 'x, -y, z'
14 '-x, y, z'
15 '-x, -y, z'
16 'x, y, z'
17 'y+1/2, x+1/2, -z+1/2'
18 '-y+1/2, -x+1/2, -z+1/2'
19 '-y+1/2, x+1/2, -z+1/2'
20 'y+1/2, -x+1/2, -z+1/2'
21 '-x+1/2, y+1/2, -z+1/2'
22 'x+1/2, -y+1/2, -z+1/2'
23 'x+1/2, y+1/2, -z+1/2'
24 '-x+1/2, -y+1/2, -z+1/2'
25 '-y+1/2, -x+1/2, z+1/2'
26 'y+1/2, x+1/2, z+1/2'
27 'y+1/2, -x+1/2, z+1/2'
28 '-y+1/2, x+1/2, z+1/2'
29 'x+1/2, -y+1/2, z+1/2'
30 '-x+1/2, y+1/2, z+1/2'
31 '-x+1/2, -y+1/2, z+1/2'
32 'x+1/2, y+1/2, z+1/2'
loop_
_atom_type_symbol
_atom_type_oxidation_number
Be0+ 0
Mo0+ 0
loop_
_atom_site_label
_atom_site_type_symbol
_atom_site_symmetry_multiplicity
_atom_site_Wyckoff_symbol
_atom_site_fract_x
_atom_site_fract_y
_atom_site_fract_z
_atom_site_B_iso_or_equiv
_atom_site_occupancy
_atom_site_attached_hydrogens
Be1 Be0+ 8 f 0.25 0.25 0.25 . 1. 0
Be2 Be0+ 8 i 0.3505(2) 0 0 . 1. 0
Be3 Be0+ 8 j 0.2895(2) 0.5 0 . 1. 0
Mo1 Mo0+ 2 a 0 0 0 . 1. 0
loop_
_atom_site_aniso_label
_atom_site_aniso_type_symbol
_atom_site_aniso_U_11
_atom_site_aniso_U_22
_atom_site_aniso_U_33
_atom_site_aniso_U_12
_atom_site_aniso_U_13
_atom_site_aniso_U_23
Be1 Be0+ 0.0063(6) 0.0063 0.0050(3) 0.0006(2) 0.0008(3) 0.0008
Be2 Be0+ 0.0062(3) 0.0060(3) 0.0115(4) 0 0 0
Be3 Be0+ 0.0081(3) 0.0046(3) 0.0060(3) 0 0 0
Mo1 Mo0+ 0.00324(3) 0.00324 0.00236(3) 0 0 0
#End of TTdata_58717-ICSD