
#(C) 2017 by FIZ Karlsruhe - Leibniz Institute for Information Infrastructure.  All rights reserved.
data_58840-ICSD
_database_code_ICSD 58840
_audit_creation_date 2004-04-01
_chemical_name_systematic 'Bismuth palladium (2/5)'
_chemical_formula_structural 'Bi2 Pd5'
_chemical_formula_sum 'Bi2 Pd5'
_exptl_crystal_density_diffrn 12.82
_publ_section_title 'Kristallstruktur von Pd5 Bi2'
loop_
_citation_id
_citation_journal_full
_citation_year
_citation_journal_volume
_citation_page_first
_citation_page_last
_citation_journal_id_ASTM
primary 'Journal of the Less-Common Metals' 1979 63 P75 P82 JCOMAH
loop_
_publ_author_name
'Sarah, N.'
'Schubert, K.'
_cell_length_a 14.430(4)
_cell_length_b 5.780(1)
_cell_length_c 6.752(1)
_cell_angle_alpha 90.
_cell_angle_beta 119.04
_cell_angle_gamma 90.
_cell_volume 492.35
_cell_formula_units_Z 4
_symmetry_space_group_name_H-M 'C 1 2/m 1'
_symmetry_Int_Tables_number 12
_refine_ls_R_factor_all 0.1
loop_
_symmetry_equiv_pos_site_id
_symmetry_equiv_pos_as_xyz
1 '-x, y, -z'
2 '-x, -y, -z'
3 'x, -y, z'
4 'x, y, z'
5 '-x+1/2, y+1/2, -z'
6 '-x+1/2, -y+1/2, -z'
7 'x+1/2, -y+1/2, z'
8 'x+1/2, y+1/2, z'
loop_
_atom_type_symbol
_atom_type_oxidation_number
Bi0+ 0
Pd0+ 0
loop_
_atom_site_label
_atom_site_type_symbol
_atom_site_symmetry_multiplicity
_atom_site_Wyckoff_symbol
_atom_site_fract_x
_atom_site_fract_y
_atom_site_fract_z
_atom_site_B_iso_or_equiv
_atom_site_occupancy
_atom_site_attached_hydrogens
Bi1 Bi0+ 4 i 0.1310(2) 0 0.9035(5) 0.012(1) 1. 0
Bi2 Bi0+ 4 i 0.4002(2) 0 0.7039(5) 0.012(1) 1. 0
Pd1 Pd0+ 4 h 0 0.250(1) 0.5 0.015(1) 1. 0
Pd2 Pd0+ 4 i 0.0918(5) 0 0.268(1) 0.016(1) 1. 0
Pd3 Pd0+ 4 i 0.3694(6) 0 0.090(1) 0.018(1) 1. 0
Pd4 Pd0+ 8 j 0.2740(3) 0.2519(9) 0.3126(7) 0.015(1) 1. 0
#End of TTdata_58840-ICSD