
#(C) 2017 by FIZ Karlsruhe - Leibniz Institute for Information Infrastructure.  All rights reserved.
data_58958-ICSD
_database_code_ICSD 58958
_audit_creation_date 2004-10-01
_audit_update_record 2012-08-01
_chemical_name_systematic 'Cadmium copper (5/2)'
_chemical_formula_structural 'Cd5 Cu2'
_chemical_formula_sum 'Cd5 Cu2'
_chemical_name_structure_type Hf9Mo4B/Al5Co2
_exptl_crystal_density_diffrn 9.16
_publ_section_title 'Kristallstruktur von Cu3 Cd10'
loop_
_citation_id
_citation_journal_full
_citation_year
_citation_journal_volume
_citation_page_first
_citation_page_last
_citation_journal_id_ASTM
primary 'Zeitschrift fuer Metallkunde' 1982 73 262 264 ZEMTAE
loop_
_publ_author_name
'Rajasekharan, T.'
'Schubert, K.'
_cell_length_a 8.1180(7)
_cell_length_b 8.118
_cell_length_c 8.751(1)
_cell_angle_alpha 90.
_cell_angle_beta 90.
_cell_angle_gamma 120.
_cell_volume 499.44
_cell_formula_units_Z 4
_symmetry_space_group_name_H-M 'P 63/m m c'
_symmetry_Int_Tables_number 194
_refine_ls_R_factor_all 0.052
loop_
_symmetry_equiv_pos_site_id
_symmetry_equiv_pos_as_xyz
1 'x, x-y, -z+1/2'
2 '-x+y, y, -z+1/2'
3 '-y, -x, -z+1/2'
4 '-x+y, -x, -z+1/2'
5 '-y, x-y, -z+1/2'
6 'x, y, -z+1/2'
7 '-x, -x+y, z+1/2'
8 'x-y, -y, z+1/2'
9 'y, x, z+1/2'
10 'x-y, x, z+1/2'
11 'y, -x+y, z+1/2'
12 '-x, -y, z+1/2'
13 '-x, -x+y, -z'
14 'x-y, -y, -z'
15 'y, x, -z'
16 'x-y, x, -z'
17 'y, -x+y, -z'
18 '-x, -y, -z'
19 'x, x-y, z'
20 '-x+y, y, z'
21 '-y, -x, z'
22 '-x+y, -x, z'
23 '-y, x-y, z'
24 'x, y, z'
loop_
_atom_type_symbol
_atom_type_oxidation_number
Cd0+ 0
Cu0+ 0
loop_
_atom_site_label
_atom_site_type_symbol
_atom_site_symmetry_multiplicity
_atom_site_Wyckoff_symbol
_atom_site_fract_x
_atom_site_fract_y
_atom_site_fract_z
_atom_site_B_iso_or_equiv
_atom_site_occupancy
_atom_site_attached_hydrogens
Cd1 Cd0+ 2 a 0 0 0 . 1. 0
Cd2 Cd0+ 6 h 0.4593 0.9186 0.25 . 1. 0
Cd3 Cd0+ 12 k 0.2056 0.4113 0.9469 . 1. 0
Cu1 Cu0+ 6 h 0.1091 0.2182 0.25 . 1. 0
Cu2 Cu0+ 2 d 0.3333 0.6667 0.75 . 1. 0
loop_
_atom_site_aniso_label
_atom_site_aniso_type_symbol
_atom_site_aniso_U_11
_atom_site_aniso_U_22
_atom_site_aniso_U_33
_atom_site_aniso_U_12
_atom_site_aniso_U_13
_atom_site_aniso_U_23
Cd1 Cd0+ .024(4) .019(4) .020(4) .010(4) 0 0
Cd2 Cd0+ .015(1) .018(2) .032(2) .009(1) 0 0
Cd3 Cd0+ .014(1) .016(2) .037(2) .008(1) -.002(1) -.004(1)
Cu1 Cu0+ .018(2) .010(2) .024(3) .005(1) 0 0
Cu2 Cu0+ .016(1) .013(1) .012(1) .001(9) 0 0
#End of TTdata_58958-ICSD