
#(C) 2017 by FIZ Karlsruhe - Leibniz Institute for Information Infrastructure.  All rights reserved.
data_59442-ICSD
_database_code_ICSD 59442
_audit_creation_date 2005-04-01
_audit_update_record 2017-08-01
_chemical_name_systematic 'Indium nickel (3/2)'
_chemical_formula_structural 'In3 Ni2'
_chemical_formula_sum 'In3 Ni2'
_chemical_name_structure_type Al3Ni2
_exptl_crystal_density_diffrn 8.69
_publ_section_title 'Das System Nickel-Indium'
loop_
_citation_id
_citation_journal_full
_citation_year
_citation_journal_volume
_citation_page_first
_citation_page_last
_citation_journal_id_ASTM
primary 'Zeitschrift fuer Metallkunde' 1950 41 401 406 ZEMTAE
loop_
_publ_author_name
'Hellner, Erwin'
_cell_length_a 4.387(3)
_cell_length_b 4.387(3)
_cell_length_c 5.295(4)
_cell_angle_alpha 90.
_cell_angle_beta 90.
_cell_angle_gamma 120.
_cell_volume 88.25
_cell_formula_units_Z 1
_symmetry_space_group_name_H-M 'P -3 m 1'
_symmetry_Int_Tables_number 164
loop_
_symmetry_equiv_pos_site_id
_symmetry_equiv_pos_as_xyz
1 'x-y, -y, -z'
2 '-x, -x+y, -z'
3 'y, x, -z'
4 'x-y, x, -z'
5 'y, -x+y, -z'
6 '-x, -y, -z'
7 '-x+y, y, z'
8 'x, x-y, z'
9 '-y, -x, z'
10 '-x+y, -x, z'
11 '-y, x-y, z'
12 'x, y, z'
loop_
_atom_type_symbol
_atom_type_oxidation_number
In0+ 0
Ni0+ 0
loop_
_atom_site_label
_atom_site_type_symbol
_atom_site_symmetry_multiplicity
_atom_site_Wyckoff_symbol
_atom_site_fract_x
_atom_site_fract_y
_atom_site_fract_z
_atom_site_B_iso_or_equiv
_atom_site_occupancy
_atom_site_attached_hydrogens
In1 In0+ 1 a 0 0 0 . 1 0
In2 In0+ 2 d .3333 .6667 .641 . 1 0
Ni1 Ni0+ 2 d .3333 .6667 .135 . 1 0
#End of TTdata_59442-ICSD