
#(C) 2017 by FIZ Karlsruhe - Leibniz Institute for Information Infrastructure.  All rights reserved.
data_59501-ICSD
_database_code_ICSD 59501
_audit_creation_date 2005-04-01
_audit_update_record 2012-02-01
_chemical_name_systematic 'Indium platinum (9/13)'
_chemical_formula_structural 'In9 Pt13'
_chemical_formula_sum 'In9 Pt13'
_chemical_name_structure_type In9Pt13
_exptl_crystal_density_diffrn 15.82
_publ_section_title 'Kristallstruktur von Ni13 Ga9 und zwei Isotypen'
loop_
_citation_id
_citation_journal_full
_citation_year
_citation_journal_volume
_citation_page_first
_citation_page_last
_citation_journal_id_ASTM
primary 'Journal of the Less-Common Metals' 1969 19 245 252 JCOMAH
loop_
_publ_author_name
'Ellner, M.'
'Bhan, S.'
'Schubert, K.'
_cell_length_a 15.344
_cell_length_b 8.792
_cell_length_c 9.5
_cell_angle_alpha 90.
_cell_angle_beta 35.79
_cell_angle_gamma 90.
_cell_volume 749.5
_cell_formula_units_Z 2
_symmetry_space_group_name_H-M 'C 1 2/m 1'
_symmetry_Int_Tables_number 12
loop_
_symmetry_equiv_pos_site_id
_symmetry_equiv_pos_as_xyz
1 '-x, y, -z'
2 '-x, -y, -z'
3 'x, -y, z'
4 'x, y, z'
5 '-x+1/2, y+1/2, -z'
6 '-x+1/2, -y+1/2, -z'
7 'x+1/2, -y+1/2, z'
8 'x+1/2, y+1/2, z'
loop_
_atom_type_symbol
_atom_type_oxidation_number
Pt0+ 0
In0+ 0
Pt0+ 0
In0+ 0
Pt0+ 0
In0+ 0
Pt0+ 0
loop_
_atom_site_label
_atom_site_type_symbol
_atom_site_symmetry_multiplicity
_atom_site_Wyckoff_symbol
_atom_site_fract_x
_atom_site_fract_y
_atom_site_fract_z
_atom_site_B_iso_or_equiv
_atom_site_occupancy
_atom_site_attached_hydrogens
Pt1 Pt0+ 2 c 0 0 .5 . 1 0
In1 In0+ 2 d 0 .5 .5 . 1 0
Pt2 Pt0+ 4 f .25 .25 .5 . 1 0
Pt3 Pt0+ 4 g 0 .248 0 . 1 0
In2 In0+ 4 i .701 0 .762 . 1 0
In3 In0+ 4 i .172 0 .76 . 1 0
Pt4 Pt0+ 4 i .248 0 .01 . 1 0
Pt5 Pt0+ 4 i .445 0 .275 . 1 0
In4 In0+ 8 j .957 .227 .768 . 1 0
Pt6 Pt0+ 8 j .807 .251 .731 . 1 0
#End of TTdata_59501-ICSD