
data_59518-ICSD
_database_code_ICSD 59518
_audit_creation_date 2005-04-01
_audit_update_record 2010-08-01
_chemical_name_systematic 'Indium ruthenium (3/1)'
_chemical_formula_structural 'In3 Ru'
_chemical_formula_sum 'In3 Ru1'
_chemical_name_structure_type CoGa3
_exptl_crystal_density_diffrn 8.34
_cell_length_a 6.9983(3)
_cell_length_b 6.9983(3)
_cell_length_c 7.2440(4)
_cell_angle_alpha 90.
_cell_angle_beta 90.
_cell_angle_gamma 90.
_cell_volume 354.78
_cell_formula_units_Z 4
_symmetry_space_group_name_H-M 'P -4 n 2'
_symmetry_Int_Tables_number 118
_refine_ls_R_factor_all 0.116
loop_
_symmetry_equiv_pos_site_id
_symmetry_equiv_pos_as_xyz
1 '-y+1/2, -x+1/2, -z+1/2'
2 'y, -x, -z'
3 'x+1/2, -y+1/2, z+1/2'
4 '-x, -y, z'
5 'y+1/2, x+1/2, -z+1/2'
6 '-y, x, -z'
7 '-x+1/2, y+1/2, z+1/2'
8 'x, y, z'
loop_
_atom_type_symbol
_atom_type_oxidation_number
In0+ 0
Ru0+ 0
In0+ 0
loop_
_atom_site_label
_atom_site_type_symbol
_atom_site_symmetry_multiplicity
_atom_site_Wyckoff_symbol
_atom_site_fract_x
_atom_site_fract_y
_atom_site_fract_z
_atom_site_B_iso_or_equiv
_atom_site_occupancy
_atom_site_attached_hydrogens
In1 In0+ 4 e 0 0 .237 . 1. 0
Ru1 Ru0+ 4 f .35 .15 .25 . 1. 0
In2 In0+ 8 i .157 .351 .992 . 1. 0
