
#(C) 2017 by FIZ Karlsruhe - Leibniz Institute for Information Infrastructure.  All rights reserved.
data_59601-ICSD
_database_code_ICSD 59601
_audit_creation_date 2005-04-01
_audit_update_record 2012-08-01
_chemical_name_systematic 'Tetrabismuth tantalum octaoxide chloride'
_chemical_formula_structural 'Bi4 Ta O8 Cl'
_chemical_formula_sum 'Bi4 Cl1 O8 Ta1'
_exptl_crystal_density_diffrn 8.88
_cell_measurement_temperature 1023.
_publ_section_title

;
Layered intergrowth phases Bi4 M O8 X (X = Cl, M = Ta, and X = Br, M = Ta or
Nb): structural and electrophysical characterization
;
loop_
_citation_id
_citation_journal_full
_citation_year
_citation_journal_volume
_citation_page_first
_citation_page_last
_citation_journal_id_ASTM
primary 'Journal of Solid State Chemistry' 2002 166 148 157 JSSCBI
loop_
_publ_author_name
'Kusainova, A.M.'
'Zhou, W.'
'Irvine, J.T.S.'
'Lightfoot, P.'
_cell_length_a 3.8991(1)
_cell_length_b 3.8991(1)
_cell_length_c 14.5104(4)
_cell_angle_alpha 90.
_cell_angle_beta 90.
_cell_angle_gamma 90.
_cell_volume 220.6
_cell_formula_units_Z 1
_symmetry_space_group_name_H-M 'P 4/m m m'
_symmetry_Int_Tables_number 123
_refine_ls_R_factor_all 0.022
loop_
_symmetry_equiv_pos_site_id
_symmetry_equiv_pos_as_xyz
1 'y, x, -z'
2 '-y, -x, -z'
3 '-y, x, -z'
4 'y, -x, -z'
5 '-x, y, -z'
6 'x, -y, -z'
7 'x, y, -z'
8 '-x, -y, -z'
9 '-y, -x, z'
10 'y, x, z'
11 'y, -x, z'
12 '-y, x, z'
13 'x, -y, z'
14 '-x, y, z'
15 '-x, -y, z'
16 'x, y, z'
loop_
_atom_type_symbol
_atom_type_oxidation_number
Ta5+ 5
Bi3+ 3
Cl1- -1
O2- -2
loop_
_atom_site_label
_atom_site_type_symbol
_atom_site_symmetry_multiplicity
_atom_site_Wyckoff_symbol
_atom_site_fract_x
_atom_site_fract_y
_atom_site_fract_z
_atom_site_B_iso_or_equiv
_atom_site_occupancy
_atom_site_attached_hydrogens
Ta1 Ta5+ 1 a 0 0 0 . 1 0
Bi1 Bi3+ 2 g 0 0 .3614(1) . 1 0
Bi2 Bi3+ 2 h .5 .5 .1820(2) . 1 0
Cl1 Cl1- 1 d .5 .5 .5 . 1 0
O1 O2- 4 i 0 .5 .2859(1) . 1 0
O2 O2- 2 g 0 0 .1341(3) . 1 0
O3 O2- 2 f 0 .5 0 . 1 0
loop_
_atom_site_aniso_label
_atom_site_aniso_type_symbol
_atom_site_aniso_U_11
_atom_site_aniso_U_22
_atom_site_aniso_U_33
_atom_site_aniso_U_12
_atom_site_aniso_U_13
_atom_site_aniso_U_23
Ta1 Ta5+ .0085(8) .0085(8) .021(2) 0 0 0
Bi1 Bi3+ .0175(5) .0176(5) .023(1) 0 0 0
Bi2 Bi3+ .070(1) .070(1) .036(1) 0 0 0
Cl1 Cl1- .048(1) .048(1) .046(2) 0 0 0
O1 O2- .026(1) .016(1) .031(1) 0 0 0
O2 O2- .184(3) .184(3) .021(2) 0 0 0
O3 O2- .096(4) .001(1) .194(5) 0 0 0
#End of TTdata_59601-ICSD