
#(C) 2017 by FIZ Karlsruhe - Leibniz Institute for Information Infrastructure, and the U.S. Secretary of
#Commerce on behalf of the United States.  All rights reserved.
data_600832-ICSD
_database_code_ICSD 600832
_audit_creation_date 2013-02-01
_chemical_name_systematic 'Hafnium copper germanide (1/1/1)'
_chemical_formula_structural 'Hf Cu Ge'
_chemical_formula_sum 'Cu1 Ge1 Hf1'
_chemical_name_structure_type TiNiSi-MgSrSi
_exptl_crystal_density_diffrn 11.02
_publ_section_title 'Structure of the compounds Ti Cu Ge and Hf Cu Ge'
_publ_section_comment 'Cell and Type only determined'
loop_
_citation_id
_citation_journal_full
_citation_year
_citation_journal_volume
_citation_page_first
_citation_page_last
_citation_journal_id_ASTM
primary 'Inorganic Materials' 1986 22 605 606 INOMAF
loop_
_publ_author_name
'Kinzhibalo, V.V.'
'Kotur, B.Ya.'
'Bochvar, N.R.'
'Lysova, E.V.'
_cell_length_a 6.485(2)
_cell_length_b 3.952(1)
_cell_length_c 7.397(4)
_cell_angle_alpha 90.
_cell_angle_beta 90.
_cell_angle_gamma 90.
_cell_volume 189.58
_cell_formula_units_Z 4
_symmetry_space_group_name_H-M 'P n m a'
_symmetry_Int_Tables_number 62
loop_
_symmetry_equiv_pos_site_id
_symmetry_equiv_pos_as_xyz
1 'x+1/2, y, -z+1/2'
2 'x, -y+1/2, z'
3 '-x+1/2, y+1/2, z+1/2'
4 '-x, -y, -z'
5 '-x+1/2, -y, z+1/2'
6 '-x, y+1/2, -z'
7 'x+1/2, -y+1/2, -z+1/2'
8 'x, y, z'
loop_
_atom_type_symbol
_atom_type_oxidation_number
Hf0+ 0
Cu0+ 0
Ge0+ 0
loop_
_atom_site_label
_atom_site_type_symbol
_atom_site_symmetry_multiplicity
_atom_site_Wyckoff_symbol
_atom_site_fract_x
_atom_site_fract_y
_atom_site_fract_z
_atom_site_B_iso_or_equiv
_atom_site_occupancy
_atom_site_attached_hydrogens
Hf1 Hf0+ 4 c 0.021 0.25 0.682 . 1. 0
Cu1 Cu0+ 4 c 0.142 0.25 0.06 . 1. 0
Ge1 Ge0+ 4 c 0.265 0.25 0.376 . 1. 0
#End of TTdata_600832-ICSD