
#(C) 2017 by FIZ Karlsruhe - Leibniz Institute for Information Infrastructure.  All rights reserved.
data_60136-ICSD
_database_code_ICSD 60136
_audit_creation_date 1986-04-14
_chemical_name_systematic 'Manganese(II) iodide tetrahydrate'
_chemical_formula_structural 'Mn I2 (H2 O)4'
_chemical_formula_sum 'H8 I2 Mn1 O4'
_chemical_name_structure_type FeCl2(H2O)4
_exptl_crystal_density_diffrn 2.88
_publ_section_title
'Structure of manganese(II) iodide tetrahydrate, Mn I2 (H2 O) Mn I2 (H2 O)4'
loop_
_citation_id
_citation_journal_full
_citation_year
_citation_journal_volume
_citation_page_first
_citation_page_last
_citation_journal_id_ASTM
primary 'Acta Crystallographica, Section C: Crystal Structure Communications'
1985 41 1284 1286 ACSCEE
loop_
_publ_author_name
'Moore, J.E.'
'Abola, J.E.'
'Butera, R.A.'
_cell_length_a 6.698(2)
_cell_length_b 7.494(3)
_cell_length_c 9.308(5)
_cell_angle_alpha 90.
_cell_angle_beta 110.21(3)
_cell_angle_gamma 90.
_cell_volume 438.45
_cell_formula_units_Z 2
_symmetry_space_group_name_H-M 'P 1 21/c 1'
_symmetry_Int_Tables_number 14
_refine_ls_R_factor_all 0.047
loop_
_symmetry_equiv_pos_site_id
_symmetry_equiv_pos_as_xyz
1 'x, -y+1/2, z+1/2'
2 '-x, -y, -z'
3 '-x, y+1/2, -z+1/2'
4 'x, y, z'
loop_
_atom_type_symbol
_atom_type_oxidation_number
Mn2+ 2
I1- -1
O2- -2
H1+ 1
loop_
_atom_site_label
_atom_site_type_symbol
_atom_site_symmetry_multiplicity
_atom_site_Wyckoff_symbol
_atom_site_fract_x
_atom_site_fract_y
_atom_site_fract_z
_atom_site_B_iso_or_equiv
_atom_site_occupancy
_atom_site_attached_hydrogens
Mn1 Mn2+ 2 a 0 0 0 . 1. 0
I1 I1- 4 e 0.3202(2) 0.2826(1) 0.0798(1) . 1. 0
O1 O2- 4 e 0.0049(14) -.0031(16) 0.2356(8) . 1. 0
O2 O2- 4 e 0.2515(13) -.1988(13) 0.0638(10) . 1. 0
loop_
_atom_site_aniso_label
_atom_site_aniso_type_symbol
_atom_site_aniso_U_11
_atom_site_aniso_U_22
_atom_site_aniso_U_33
_atom_site_aniso_U_12
_atom_site_aniso_U_13
_atom_site_aniso_U_23
Mn1 Mn2+ 0.030(1) 0.036(1) 0.030(1) 0.003(1) 0.010(1) 0.000(1)
I1 I1- 0.033(1) 0.048(1) 0.038(1) -.008(1) 0.011(1) -.003(1)
O1 O2- 0.086(6) 0.102(8) 0.035(4) -.051(6) 0.029(4) -.018(5)
O2 O2- 0.041(4) 0.068(7) 0.080(7) 0.024(4) 0.010(4) -.005(5)
#End of TTdata_60136-ICSD