
#(C) 2017 by FIZ Karlsruhe - Leibniz Institute for Information Infrastructure.  All rights reserved.
data_60146-ICSD
_database_code_ICSD 60146
_audit_creation_date 1986-04-14
_chemical_name_systematic 'Aluminium antimony calcium (2/6/5)'
_chemical_formula_structural 'Ca5 Al2 Sb6'
_chemical_formula_sum 'Al2 Ca5 Sb6'
_chemical_name_structure_type Ca5Ga2As6
_exptl_crystal_density_diffrn 4.31
_publ_section_title

;
Zintlphasen mit komplexen Anionen: Zur Kenntnis von Ca5 Al2 Sb6 und Ca3 Al2
As4
;
loop_
_citation_id
_citation_journal_full
_citation_year
_citation_journal_volume
_citation_page_first
_citation_page_last
_citation_journal_id_ASTM
primary 'Revue de Chimie Minerale' 1981 18 9 18 RVCMA8
loop_
_publ_author_name
'Cordier, G.'
'Czech, E.'
'Jakowski, M.'
'Schaefer, H.'
_cell_length_a 14.07(2)
_cell_length_b 12.09(2)
_cell_length_c 4.46(1)
_cell_angle_alpha 90.
_cell_angle_beta 90.
_cell_angle_gamma 90.
_cell_volume 758.67
_cell_formula_units_Z 2
_symmetry_space_group_name_H-M 'P b a m'
_symmetry_Int_Tables_number 55
_refine_ls_R_factor_all 0.063
loop_
_symmetry_equiv_pos_site_id
_symmetry_equiv_pos_as_xyz
1 'x+1/2, -y+1/2, z'
2 '-x+1/2, y+1/2, z'
3 'x, y, -z'
4 '-x, -y, -z'
5 '-x+1/2, y+1/2, -z'
6 'x+1/2, -y+1/2, -z'
7 '-x, -y, z'
8 'x, y, z'
loop_
_atom_type_symbol
_atom_type_oxidation_number
Ca0+ 0
Al0+ 0
Sb0+ 0
loop_
_atom_site_label
_atom_site_type_symbol
_atom_site_symmetry_multiplicity
_atom_site_Wyckoff_symbol
_atom_site_fract_x
_atom_site_fract_y
_atom_site_fract_z
_atom_site_B_iso_or_equiv
_atom_site_occupancy
_atom_site_attached_hydrogens
Ca1 Ca0+ 4 h 0.4879(2) 0.6754(3) 0.5 0.0136(6) 1. 0
Ca2 Ca0+ 4 h 0.2479(2) 0.4074(3) 0.5 0.0101(5) 1. 0
Ca3 Ca0+ 2 d 0 0.5 0.5 0.0106(9) 1. 0
Al1 Al0+ 4 g 0.2884(3) 0.6693(4) 0 0.0106(9) 1. 0
Sb1 Sb0+ 4 g 0.4057(1) 0.8433(1) 0 0.0095(2) 1. 0
Sb2 Sb0+ 4 h 0.1796(1) 0.6602(1) 0.5 0.0082(2) 1. 0
Sb3 Sb0+ 4 g 0.4006(1) 0.4764(1) 0 0.0103(2) 1. 0
#End of TTdata_60146-ICSD