
#(C) 2017 by FIZ Karlsruhe - Leibniz Institute for Information Infrastructure, and the U.S. Secretary of
#Commerce on behalf of the United States.  All rights reserved.
data_602349-ICSD
_database_code_ICSD 602349
_audit_creation_date 2013-02-01
_chemical_name_systematic 'Calcium palladium plumbide (1/1/1)'
_chemical_formula_structural 'Ca Pd Pb'
_chemical_formula_sum 'Ca1 Pb1 Pd1'
_chemical_name_structure_type TiNiSi-MgSrSi
_exptl_crystal_density_diffrn 8.39
_publ_section_title
'From a three- to a four-connected net in trimorphic Ca Pt Si at high pressure'
_publ_section_comment 'Cell and Type only determined'
loop_
_citation_id
_citation_journal_full
_citation_year
_citation_journal_volume
_citation_page_first
_citation_page_last
_citation_journal_id_ASTM
primary 'Journal of Solid State Chemistry' 1993 103 45 56 JSSCBI
loop_
_publ_author_name
'Evers, J.'
'Oehlinger, G.'
'Polborn, K.'
'Sendlinger, B.'
_cell_length_a 7.306(5)
_cell_length_b 4.658(5)
_cell_length_c 8.226(5)
_cell_angle_alpha 90.
_cell_angle_beta 90.
_cell_angle_gamma 90.
_cell_volume 279.94
_cell_formula_units_Z 4
_symmetry_space_group_name_H-M 'P n m a'
_symmetry_Int_Tables_number 62
loop_
_symmetry_equiv_pos_site_id
_symmetry_equiv_pos_as_xyz
1 'x+1/2, y, -z+1/2'
2 'x, -y+1/2, z'
3 '-x+1/2, y+1/2, z+1/2'
4 '-x, -y, -z'
5 '-x+1/2, -y, z+1/2'
6 '-x, y+1/2, -z'
7 'x+1/2, -y+1/2, -z+1/2'
8 'x, y, z'
loop_
_atom_type_symbol
_atom_type_oxidation_number
Ca0+ 0
Pd0+ 0
Pb0+ 0
loop_
_atom_site_label
_atom_site_type_symbol
_atom_site_symmetry_multiplicity
_atom_site_Wyckoff_symbol
_atom_site_fract_x
_atom_site_fract_y
_atom_site_fract_z
_atom_site_B_iso_or_equiv
_atom_site_occupancy
_atom_site_attached_hydrogens
Ca1 Ca0+ 4 c 0.996 0.25 0.688 . 1. 0
Pd1 Pd0+ 4 c 0.191 0.25 0.095 . 1. 0
Pb1 Pb0+ 4 c 0.326 0.25 0.417 . 1. 0
#End of TTdata_602349-ICSD