
#(C) 2017 by FIZ Karlsruhe - Leibniz Institute for Information Infrastructure, and the U.S. Secretary of
#Commerce on behalf of the United States.  All rights reserved.
data_602316-ICSD
_database_code_ICSD 602316
_audit_creation_date 2010-02-01
_chemical_name_systematic 'Lanthanum rhodium silicide (1/1/2)'
_chemical_formula_structural 'La Rh Si2'
_chemical_formula_sum 'La1 Rh1 Si2'
_chemical_name_structure_type BaCuSn2
_exptl_crystal_density_diffrn 6.16
_publ_section_title

;
Structural magnetic and transport properties of a new valence fluctuating
compound: Ce Rh Si2
;
_publ_section_comment 'Cell and Type only determined'
loop_
_citation_id
_citation_journal_full
_citation_year
_citation_journal_volume
_citation_page_first
_citation_page_last
_citation_journal_id_ASTM
primary 'Journal of Magnetism and Magnetic Materials' 1993 119 54 58 JMMMDC
loop_
_publ_author_name
'Adroja, D.T.'
'Rainford, B.D.'
_cell_length_a 4.385
_cell_length_b 17.107
_cell_length_c 4.259
_cell_angle_alpha 90.
_cell_angle_beta 90.
_cell_angle_gamma 90.
_cell_volume 319.49
_cell_formula_units_Z 4
_symmetry_space_group_name_H-M 'C m c m'
_symmetry_Int_Tables_number 63
loop_
_symmetry_equiv_pos_site_id
_symmetry_equiv_pos_as_xyz
1 '-x, y, -z+1/2'
2 '-x, -y, z+1/2'
3 '-x, y, z'
4 '-x, -y, -z'
5 'x, -y, z+1/2'
6 'x, y, -z+1/2'
7 'x, -y, -z'
8 'x, y, z'
9 '-x+1/2, y+1/2, -z+1/2'
10 '-x+1/2, -y+1/2, z+1/2'
11 '-x+1/2, y+1/2, z'
12 '-x+1/2, -y+1/2, -z'
13 'x+1/2, -y+1/2, z+1/2'
14 'x+1/2, y+1/2, -z+1/2'
15 'x+1/2, -y+1/2, -z'
16 'x+1/2, y+1/2, z'
loop_
_atom_type_symbol
_atom_type_oxidation_number
La0+ 0
Rh0+ 0
Si0+ 0
loop_
_atom_site_label
_atom_site_type_symbol
_atom_site_symmetry_multiplicity
_atom_site_Wyckoff_symbol
_atom_site_fract_x
_atom_site_fract_y
_atom_site_fract_z
_atom_site_B_iso_or_equiv
_atom_site_occupancy
_atom_site_attached_hydrogens
La1 La0+ 4 c 0 0.107 .25 . 1. 0
Rh1 Rh0+ 4 c 0 0.316 .25 . 1. 0
Si1 Si0+ 4 c 0 0.457 .25 . 1. 0
Si2 Si0+ 4 c 0 0.749 .25 . 1. 0
#End of TTdata_602316-ICSD