
#(C) 2017 by FIZ Karlsruhe - Leibniz Institute for Information Infrastructure, and the U.S. Secretary of
#Commerce on behalf of the United States.  All rights reserved.
data_602589-ICSD
_database_code_ICSD 602589
_audit_creation_date 2013-02-01
_chemical_name_systematic 'Yttrium silver gallide (3/3/8)'
_chemical_formula_structural 'Y3 Ag3 Ga8'
_chemical_formula_sum 'Ag3 Ga8 Y3'
_chemical_name_structure_type Al11La3
_exptl_crystal_density_diffrn 7.27
_publ_section_title

;
Crystal chemistry and magnetic properties of the ternary compounds RE3 Agx
Ga11-x (RE = Y, Gd, Tb, Dy, Ho, Er, Tm, and Yb)
;
_publ_section_comment 'Cell and Type only determined'
loop_
_citation_id
_citation_journal_full
_citation_year
_citation_journal_volume
_citation_page_first
_citation_page_last
_citation_journal_id_ASTM
primary 'Journal of Solid State Chemistry' 1993 105 399 405 JSSCBI
loop_
_publ_author_name
'Grin', Yu.N.'
'Ellner, M.'
'Hiebl, K.'
'Rogl, P.'
'Sichevich, O.M.'
'Myakush, O.M.'
_cell_length_a 4.3034(5)
_cell_length_b 12.802(2)
_cell_length_c 9.522(1)
_cell_angle_alpha 90.
_cell_angle_beta 90.
_cell_angle_gamma 90.
_cell_volume 524.59
_cell_formula_units_Z 2
_symmetry_space_group_name_H-M 'I m m m'
_symmetry_Int_Tables_number 71
loop_
_symmetry_equiv_pos_site_id
_symmetry_equiv_pos_as_xyz
1 'x, y, -z'
2 'x, -y, z'
3 '-x, y, z'
4 '-x, -y, -z'
5 '-x, -y, z'
6 '-x, y, -z'
7 'x, -y, -z'
8 'x, y, z'
9 'x+1/2, y+1/2, -z+1/2'
10 'x+1/2, -y+1/2, z+1/2'
11 '-x+1/2, y+1/2, z+1/2'
12 '-x+1/2, -y+1/2, -z+1/2'
13 '-x+1/2, -y+1/2, z+1/2'
14 '-x+1/2, y+1/2, -z+1/2'
15 'x+1/2, -y+1/2, -z+1/2'
16 'x+1/2, y+1/2, z+1/2'
loop_
_atom_type_symbol
_atom_type_oxidation_number
Ag0+ 0
Ga0+ 0
Y0+ 0
loop_
_atom_site_label
_atom_site_type_symbol
_atom_site_symmetry_multiplicity
_atom_site_Wyckoff_symbol
_atom_site_fract_x
_atom_site_fract_y
_atom_site_fract_z
_atom_site_B_iso_or_equiv
_atom_site_occupancy
_atom_site_attached_hydrogens
Ag1 Ag0+ 4 j 0.5 0 0.69 . 1. 0
Ag2 Ag0+ 2 c 0.5 0.5 0 . 1. 0
Ga1 Ga0+ 8 l 0 0.341 0.368 . 1. 0
Ga2 Ga0+ 8 l 0 0.142 0.28 . 1. 0
Y1 Y0+ 2 a 0 0 0 . 1. 0
Y2 Y0+ 4 g 0 0.3 0 . 1. 0
#End of TTdata_602589-ICSD