
#(C) 2017 by FIZ Karlsruhe - Leibniz Institute for Information Infrastructure, and the U.S. Secretary of
#Commerce on behalf of the United States.  All rights reserved.
data_602642-ICSD
_database_code_ICSD 602642
_audit_creation_date 2008-08-01
_audit_update_record 2017-08-01
_chemical_name_systematic 'Germanium manganese yttrium (6/6/1)'
_chemical_formula_structural 'Ge6 Mn6 Y'
_chemical_formula_sum 'Ge6 Mn6 Y1'
_chemical_name_structure_type Fe6Ge6Mg
_exptl_crystal_density_diffrn 7.5
_cell_measurement_temperature 2.
_publ_section_title

;
Magnetic structure of YMn6Ge6 and room temperature magnetic structure of
LuMn6Sn6 obtained from neutron diffraction study
;
loop_
_citation_id
_citation_journal_full
_citation_year
_citation_journal_volume
_citation_page_first
_citation_page_last
_citation_journal_id_ASTM
primary 'Journal of Alloys and Compounds' 1993 200 51 57 JALCEU
loop_
_publ_author_name
'Venturini, G.'
'Welter, R.'
'Malaman, B.'
'Ressouche, E.'
_cell_length_a 5.194(2)
_cell_length_b 5.194(2)
_cell_length_c 8.095(4)
_cell_angle_alpha 90.
_cell_angle_beta 90.
_cell_angle_gamma 120.
_cell_volume 189.13
_cell_formula_units_Z 1
_symmetry_space_group_name_H-M 'P 6/m m m'
_symmetry_Int_Tables_number 191
_refine_ls_R_factor_all 0.04
loop_
_symmetry_equiv_pos_site_id
_symmetry_equiv_pos_as_xyz
1 '-x, -x+y, -z'
2 'x-y, -y, -z'
3 'y, x, -z'
4 '-x+y, -x, -z'
5 '-y, x-y, -z'
6 'x, y, -z'
7 'x, x-y, -z'
8 '-x+y, y, -z'
9 '-y, -x, -z'
10 'x-y, x, -z'
11 'y, -x+y, -z'
12 '-x, -y, -z'
13 'x, x-y, z'
14 '-x+y, y, z'
15 '-y, -x, z'
16 'x-y, x, z'
17 'y, -x+y, z'
18 '-x, -y, z'
19 '-x, -x+y, z'
20 'x-y, -y, z'
21 'y, x, z'
22 '-x+y, -x, z'
23 '-y, x-y, z'
24 'x, y, z'
loop_
_atom_type_symbol
_atom_type_oxidation_number
Ge0+ 0
Mn0+ 0
Y0+ 0
loop_
_atom_site_label
_atom_site_type_symbol
_atom_site_symmetry_multiplicity
_atom_site_Wyckoff_symbol
_atom_site_fract_x
_atom_site_fract_y
_atom_site_fract_z
_atom_site_B_iso_or_equiv
_atom_site_occupancy
_atom_site_attached_hydrogens
Ge1 Ge0+ 2 c 0.3333 0.6667 0 . 1 0
Ge2 Ge0+ 2 d 0.3333 0.6667 0.5 . 1 0
Ge3 Ge0+ 2 e 0 0 0.1607(8) . 1 0
Mn1 Mn0+ 6 i 0.5 0 0.2512(12) . 1 0
Y1 Y0+ 1 b 0 0 0.5 . 1 0
#End of TTdata_602642-ICSD