
#(C) 2017 by FIZ Karlsruhe - Leibniz Institute for Information Infrastructure, and the U.S. Secretary of
#Commerce on behalf of the United States.  All rights reserved.
data_602790-ICSD
_database_code_ICSD 602790
_audit_creation_date 2011-02-01
_chemical_name_systematic 'Yttrium palladium gallium (1/2/1)'
_chemical_formula_structural 'Y Pd2 Ga'
_chemical_formula_sum 'Ga1 Pd2 Y1'
_chemical_name_structure_type ErPd2Si
_exptl_crystal_density_diffrn 8.44
_publ_section_title 'Antiferromagnetic Kondo lattice behaviour in Ce Pd2 Ga'
_publ_section_comment 'Cell and Type only determined'
loop_
_citation_id
_citation_journal_full
_citation_year
_citation_journal_volume
_citation_page_first
_citation_page_last
_citation_journal_id_ASTM
primary 'Journal of Alloys and Compounds' 1993 202 L7 L9 JALCEU
loop_
_publ_author_name
'Das, I.'
'Sampathkumaran, E.V.'
'Chari, S.'
'Gopalakrishnan, K.V.'
_cell_length_a 7.38
_cell_length_b 7.07
_cell_length_c 5.6
_cell_angle_alpha 90.
_cell_angle_beta 90.
_cell_angle_gamma 90.
_cell_volume 292.19
_cell_formula_units_Z 4
_symmetry_space_group_name_H-M 'P n m a'
_symmetry_Int_Tables_number 62
loop_
_symmetry_equiv_pos_site_id
_symmetry_equiv_pos_as_xyz
1 'x+1/2, y, -z+1/2'
2 'x, -y+1/2, z'
3 '-x+1/2, y+1/2, z+1/2'
4 '-x, -y, -z'
5 '-x+1/2, -y, z+1/2'
6 '-x, y+1/2, -z'
7 'x+1/2, -y+1/2, -z+1/2'
8 'x, y, z'
loop_
_atom_type_symbol
_atom_type_oxidation_number
Pd0+ 0
Y0+ 0
Ga0+ 0
loop_
_atom_site_label
_atom_site_type_symbol
_atom_site_symmetry_multiplicity
_atom_site_Wyckoff_symbol
_atom_site_fract_x
_atom_site_fract_y
_atom_site_fract_z
_atom_site_B_iso_or_equiv
_atom_site_occupancy
_atom_site_attached_hydrogens
Pd1 Pd0+ 8 d 0.177 0.053 0.088 . 1. 0
Y1 Y0+ 4 c 0.033 0.25 0.65 . 1. 0
Ga1 Ga0+ 4 c 0.379 0.25 0.348 . 1. 0
#End of TTdata_602790-ICSD