
#(C) 2017 by FIZ Karlsruhe - Leibniz Institute for Information Infrastructure.  All rights reserved.
data_603-ICSD
_database_code_ICSD 603
_audit_creation_date 1980-01-01
_audit_update_record 2009-08-01
_chemical_name_systematic 'Copper diselenate(IV)'
_chemical_formula_structural 'Cu (Se2 O5)'
_chemical_formula_sum 'Cu1 O5 Se2'
_chemical_name_structure_type Fe2TiO5(C2/c)
_exptl_crystal_density_diffrn 4.52
_publ_section_title
'Cristallochimie du selenium(+IV). III. Structure cristalline de Cu Se2 O5'
loop_
_citation_id
_citation_journal_full
_citation_year
_citation_journal_volume
_citation_page_first
_citation_page_last
_citation_journal_id_ASTM
primary 'Acta Crystallographica B (24,1968-38,1982)' 1976 32 2664 2667 ACBCAR
loop_
_publ_author_name
'Meunier, G.'
'Svensson, C.'
'Carpy, A.'
_cell_length_a 12.254(5)
_cell_length_b 4.858(3)
_cell_length_c 7.960(3)
_cell_angle_alpha 90.
_cell_angle_beta 110.7(1)
_cell_angle_gamma 90.
_cell_volume 443.27
_cell_formula_units_Z 4
_symmetry_space_group_name_H-M 'C 1 2/c 1'
_symmetry_Int_Tables_number 15
_refine_ls_R_factor_all 0.06
loop_
_symmetry_equiv_pos_site_id
_symmetry_equiv_pos_as_xyz
1 'x, -y, z+1/2'
2 '-x, -y, -z'
3 '-x, y, -z+1/2'
4 'x, y, z'
5 'x+1/2, -y+1/2, z+1/2'
6 '-x+1/2, -y+1/2, -z'
7 '-x+1/2, y+1/2, -z+1/2'
8 'x+1/2, y+1/2, z'
loop_
_atom_type_symbol
_atom_type_oxidation_number
Cu2+ 2
Se4+ 4
O2- -2
loop_
_atom_site_label
_atom_site_type_symbol
_atom_site_symmetry_multiplicity
_atom_site_Wyckoff_symbol
_atom_site_fract_x
_atom_site_fract_y
_atom_site_fract_z
_atom_site_B_iso_or_equiv
_atom_site_occupancy
_atom_site_attached_hydrogens
Cu1 Cu2+ 4 a 0 0 0 . 1. 0
Se1 Se4+ 8 f 0.1399(1) -.4353(2) 0.3299(1) . 1. 0
O1 O2- 8 f 0.1258(6) 0.2251(15) -.0131(9) . 1. 0
O2 O2- 8 f 0.1256(6) -.2237(15) 0.1584(9) . 1. 0
O3 O2- 4 e 0 -.6168(20) 0.25 . 1. 0
loop_
_atom_site_aniso_label
_atom_site_aniso_type_symbol
_atom_site_aniso_beta_11
_atom_site_aniso_beta_22
_atom_site_aniso_beta_33
_atom_site_aniso_beta_12
_atom_site_aniso_beta_13
_atom_site_aniso_beta_23
Cu1 Cu2+ 0.0013(1) 0.0096(6) 0.0039(3) -.0004(2) 0.0007(1) 0.0012(3)
Se1 Se4+ 0.0012(1) 0.0073(4) 0.0033(2) 0.0003(1) 0.0008(1) 0.0002(1)
O1 O2- 0.0024(5) 0.0159(28) 0.0076(12) -.0001(11) 0.0011(6) 0.0061(16)
O2 O2- 0.0026(5) 0.0141(27) 0.0085(13) 0.0013(10) 0.0014(6) 0.0072(16)
O3 O2- 0.0008(6) 0.0116(33) 0.0071(15) 0 0.0005(8) 0
#End of TTdata_603-ICSD