
data_603169-ICSD
_database_code_ICSD 603169
_audit_creation_date 2011-02-01
_chemical_name_systematic 'Antimony lithium stannide (1/1/1)'
_chemical_formula_structural 'Sb Li Sn'
_chemical_formula_sum 'Li1 Sb1 Sn1'
_chemical_name_structure_type LiYSn
_exptl_crystal_density_diffrn 5.92
_cell_length_a 9.325(3)
_cell_length_b 9.325(3)
_cell_length_c 7.374(1)
_cell_angle_alpha 90.
_cell_angle_beta 90.
_cell_angle_gamma 120.
_cell_volume 555.3
_cell_formula_units_Z 8
_symmetry_space_group_name_H-M 'P 63 m c'
_symmetry_Int_Tables_number 186
loop_
_symmetry_equiv_pos_site_id
_symmetry_equiv_pos_as_xyz
1 '-x, -x+y, z+1/2'
2 'x-y, -y, z+1/2'
3 'y, x, z+1/2'
4 'x-y, x, z+1/2'
5 'y, -x+y, z+1/2'
6 '-x, -y, z+1/2'
7 'x, x-y, z'
8 '-x+y, y, z'
9 '-y, -x, z'
10 '-x+y, -x, z'
11 '-y, x-y, z'
12 'x, y, z'
loop_
_atom_type_symbol
_atom_type_oxidation_number
Li1+ 1
Sb3+ 3
Sn4- -4
loop_
_atom_site_label
_atom_site_type_symbol
_atom_site_symmetry_multiplicity
_atom_site_Wyckoff_symbol
_atom_site_fract_x
_atom_site_fract_y
_atom_site_fract_z
_atom_site_B_iso_or_equiv
_atom_site_occupancy
_atom_site_attached_hydrogens
Li1 Li1+ 6 c 0.162 0.324 0.213 . 1. 0
Li2 Li1+ 2 b 0.3333 0.6667 0.85 . 1. 0
Sb1 Sb3+ 6 c 0.513 0.026 0.005 . 1. 0
Sb2 Sb3+ 2 a 0 0 0 . 1. 0
Sn1 Sn4- 6 c 0.164 0.328 0.766 . 1. 0
Sn2 Sn4- 2 b 0.3333 0.6667 0.227 . 1. 0
