
#(C) 2017 by FIZ Karlsruhe - Leibniz Institute for Information Infrastructure, and the U.S. Secretary of
#Commerce on behalf of the United States.  All rights reserved.
data_603557-ICSD
_database_code_ICSD 603557
_audit_creation_date 2011-02-01
_chemical_name_systematic 'Chromium carbide (3/1)'
_chemical_formula_structural 'Cr3 C'
_chemical_formula_sum 'C1 Cr3'
_chemical_name_structure_type Cementite-Fe3C
_exptl_crystal_density_diffrn 7.
_publ_section_title

;
Etudes structurales de composes de type cementite: effet de l''hydrogene sur
Fe3 C suivi par diffraction neutronique sp
;
_publ_section_comment 'Cell and Type only determined'
loop_
_citation_id
_citation_journal_full
_citation_year
_citation_journal_volume
_citation_page_first
_citation_page_last
_citation_journal_id_ASTM
primary 'Journal of Solid State Chemistry' 1984 51 246 252 JSSCBI
loop_
_publ_author_name
'Fruchart, D.'
'Chaudouet, P.'
'Fruchart, R.'
'Rouault, A.'
'Senateur, J.P.'
_cell_length_a 5.12
_cell_length_b 6.8
_cell_length_c 4.58
_cell_angle_alpha 90.
_cell_angle_beta 90.
_cell_angle_gamma 90.
_cell_volume 159.46
_cell_formula_units_Z 4
_symmetry_space_group_name_H-M 'P n m a'
_symmetry_Int_Tables_number 62
loop_
_symmetry_equiv_pos_site_id
_symmetry_equiv_pos_as_xyz
1 'x+1/2, y, -z+1/2'
2 'x, -y+1/2, z'
3 '-x+1/2, y+1/2, z+1/2'
4 '-x, -y, -z'
5 '-x+1/2, -y, z+1/2'
6 '-x, y+1/2, -z'
7 'x+1/2, -y+1/2, -z+1/2'
8 'x, y, z'
loop_
_atom_type_symbol
_atom_type_oxidation_number
Cr0+ 0
C0+ 0
loop_
_atom_site_label
_atom_site_type_symbol
_atom_site_symmetry_multiplicity
_atom_site_Wyckoff_symbol
_atom_site_fract_x
_atom_site_fract_y
_atom_site_fract_z
_atom_site_B_iso_or_equiv
_atom_site_occupancy
_atom_site_attached_hydrogens
Cr1 Cr0+ 8 d 0.183 0.069 0.166 . 1. 0
Cr2 Cr0+ 4 c 0.039 0.25 0.658 . 1. 0
C1 C0+ 4 c 0.376 0.25 0.443 . 1. 0
#End of TTdata_603557-ICSD