
#(C) 2017 by FIZ Karlsruhe - Leibniz Institute for Information Infrastructure, and the U.S. Secretary of
#Commerce on behalf of the United States.  All rights reserved.
data_605709-ICSD
_database_code_ICSD 605709
_audit_creation_date 2012-02-01
_chemical_name_systematic 'Trisilver trithioantimonate(III)'
_chemical_formula_structural 'Ag3 Sb S3'
_chemical_formula_sum 'Ag3 S3 Sb1'
_chemical_name_structure_type Proustite
_chemical_name_mineral Pyrargyrite
_exptl_crystal_density_diffrn 5.85
_publ_section_title 'Proustite-pyrargyrite solid solutions'
_publ_section_comment 'Cell and Type only determined'
loop_
_citation_id
_citation_journal_full
_citation_year
_citation_journal_volume
_citation_page_first
_citation_page_last
_citation_journal_id_ASTM
primary 'American Mineralogist' 1963 48 725 736 AMMIAY
loop_
_publ_author_name
'Toulmin, P.'
_cell_length_a 11.0520(15)
_cell_length_b 11.0520(15)
_cell_length_c 8.7177(16)
_cell_angle_alpha 90.
_cell_angle_beta 90.
_cell_angle_gamma 120.
_cell_volume 922.18
_cell_formula_units_Z 6
_symmetry_space_group_name_H-M 'R 3 c H'
_symmetry_Int_Tables_number 161
loop_
_symmetry_equiv_pos_site_id
_symmetry_equiv_pos_as_xyz
1 '-x+y, y, z+1/2'
2 'x, x-y, z+1/2'
3 '-y, -x, z+1/2'
4 '-x+y, -x, z'
5 '-y, x-y, z'
6 'x, y, z'
7 '-x+y+2/3, y+1/3, z+5/6'
8 'x+2/3, x-y+1/3, z+5/6'
9 '-y+2/3, -x+1/3, z+5/6'
10 '-x+y+2/3, -x+1/3, z+1/3'
11 '-y+2/3, x-y+1/3, z+1/3'
12 'x+2/3, y+1/3, z+1/3'
13 '-x+y+1/3, y+2/3, z+1/6'
14 'x+1/3, x-y+2/3, z+1/6'
15 '-y+1/3, -x+2/3, z+1/6'
16 '-x+y+1/3, -x+2/3, z+2/3'
17 '-y+1/3, x-y+2/3, z+2/3'
18 'x+1/3, y+2/3, z+2/3'
loop_
_atom_type_symbol
_atom_type_oxidation_number
Ag1+ 1
Sb3+ 3
S2- -2
loop_
_atom_site_label
_atom_site_type_symbol
_atom_site_symmetry_multiplicity
_atom_site_Wyckoff_symbol
_atom_site_fract_x
_atom_site_fract_y
_atom_site_fract_z
_atom_site_B_iso_or_equiv
_atom_site_occupancy
_atom_site_attached_hydrogens
Ag1 Ag1+ 18 b 0.246 0.298 0.235 . 1. 0
Sb1 Sb3+ 6 a 0 0 0 . 1. 0
S1 S2- 18 b 0.22 0.095 0.385 . 1. 0
#End of TTdata_605709-ICSD