
#(C) 2017 by FIZ Karlsruhe - Leibniz Institute for Information Infrastructure, and the U.S. Secretary of
#Commerce on behalf of the United States.  All rights reserved.
data_605838-ICSD
_database_code_ICSD 605838
_audit_creation_date 2012-02-01
_chemical_name_systematic 'Silicon silver (1/2)'
_chemical_formula_structural 'Si Ag2'
_chemical_formula_sum 'Ag2 Si1'
_chemical_name_structure_type Re2U
_exptl_crystal_density_diffrn 7.49
_publ_section_title 'A new metastable phase in the silver-silicon system'
_publ_section_comment 'Cell and Type only determined'
loop_
_citation_id
_citation_journal_full
_citation_year
_citation_journal_volume
_citation_page_first
_citation_page_last
_citation_journal_id_ASTM
primary 'Journal of the Less-Common Metals' 1974 35 347 352 JCOMAH
loop_
_publ_author_name
'Suryanarayana, C.'
_cell_length_a 5.56
_cell_length_b 9.16
_cell_length_c 8.49
_cell_angle_alpha 90.
_cell_angle_beta 90.
_cell_angle_gamma 90.
_cell_volume 432.39
_cell_formula_units_Z 8
_symmetry_space_group_name_H-M 'C m c m'
_symmetry_Int_Tables_number 63
loop_
_symmetry_equiv_pos_site_id
_symmetry_equiv_pos_as_xyz
1 '-x, y, -z+1/2'
2 '-x, -y, z+1/2'
3 '-x, y, z'
4 '-x, -y, -z'
5 'x, -y, z+1/2'
6 'x, y, -z+1/2'
7 'x, -y, -z'
8 'x, y, z'
9 '-x+1/2, y+1/2, -z+1/2'
10 '-x+1/2, -y+1/2, z+1/2'
11 '-x+1/2, y+1/2, z'
12 '-x+1/2, -y+1/2, -z'
13 'x+1/2, -y+1/2, z+1/2'
14 'x+1/2, y+1/2, -z+1/2'
15 'x+1/2, -y+1/2, -z'
16 'x+1/2, y+1/2, z'
loop_
_atom_type_symbol
_atom_type_oxidation_number
Ag0+ 0
Si0+ 0
loop_
_atom_site_label
_atom_site_type_symbol
_atom_site_symmetry_multiplicity
_atom_site_Wyckoff_symbol
_atom_site_fract_x
_atom_site_fract_y
_atom_site_fract_z
_atom_site_B_iso_or_equiv
_atom_site_occupancy
_atom_site_attached_hydrogens
Ag1 Ag0+ 4 a 0 0 0 . 1. 0
Ag2 Ag0+ 4 c 0 0.833 0.25 . 1. 0
Ag3 Ag0+ 8 g 0.25 0.083 0.25 . 1. 0
Si1 Si0+ 8 f 0 0.333 0.063 . 1. 0
#End of TTdata_605838-ICSD