
data_605850-ICSD
_database_code_ICSD 605850
_audit_creation_date 2009-08-01
_chemical_name_systematic 'Silver yttrium silicide'
_chemical_formula_structural 'Ag Y Si'
_chemical_formula_sum 'Ag1 Si1 Y1'
_chemical_name_structure_type ZrNiAl-Fe2P
_exptl_crystal_density_diffrn 6.29
_cell_length_a 7.024(1)
_cell_length_b 7.024(1)
_cell_length_c 4.170(2)
_cell_angle_alpha 90.
_cell_angle_beta 90.
_cell_angle_gamma 120.
_cell_volume 178.17
_cell_formula_units_Z 3
_symmetry_space_group_name_H-M 'P -6 2 m'
_symmetry_Int_Tables_number 189
loop_
_symmetry_equiv_pos_site_id
_symmetry_equiv_pos_as_xyz
1 '-x, -x+y, -z'
2 'x-y, -y, -z'
3 'y, x, -z'
4 '-x, -x+y, z'
5 'x-y, -y, z'
6 'y, x, z'
7 '-x+y, -x, -z'
8 '-y, x-y, -z'
9 'x, y, -z'
10 '-x+y, -x, z'
11 '-y, x-y, z'
12 'x, y, z'
loop_
_atom_type_symbol
_atom_type_oxidation_number
Ag1+ 1
Y3+ 3
Si4- -4
loop_
_atom_site_label
_atom_site_type_symbol
_atom_site_symmetry_multiplicity
_atom_site_Wyckoff_symbol
_atom_site_fract_x
_atom_site_fract_y
_atom_site_fract_z
_atom_site_B_iso_or_equiv
_atom_site_occupancy
_atom_site_attached_hydrogens
Ag1 Ag1+ 3 f 0.245 0 0 . 1. 0
Y1 Y3+ 3 g 0.57 0 0.5 . 1. 0
Si1 Si4- 2 c 0.3333 0.6667 0 . 1. 0
Si2 Si4- 1 b 0 0 0.5 . 1. 0
