
data_606887-ICSD
_database_code_ICSD 606887
_audit_creation_date 2012-02-01
_chemical_name_systematic 'Aluminium copper (1/4)'
_chemical_formula_structural 'Al Cu4'
_chemical_formula_sum 'Al1 Cu4'
_chemical_name_structure_type AlAu4
_exptl_crystal_density_diffrn 7.61
_cell_length_a 6.26
_cell_length_b 6.26
_cell_length_c 6.26
_cell_angle_alpha 90.
_cell_angle_beta 90.
_cell_angle_gamma 90.
_cell_volume 245.31
_cell_formula_units_Z 4
_symmetry_space_group_name_H-M 'P 21 3'
_symmetry_Int_Tables_number 198
loop_
_symmetry_equiv_pos_site_id
_symmetry_equiv_pos_as_xyz
1 '-z+1/2, -x, y+1/2'
2 '-y+1/2, -z, x+1/2'
3 '-x+1/2, -y, z+1/2'
4 '-z, x+1/2, -y+1/2'
5 '-y, z+1/2, -x+1/2'
6 '-x, y+1/2, -z+1/2'
7 'z+1/2, -x+1/2, -y'
8 'y+1/2, -z+1/2, -x'
9 'x+1/2, -y+1/2, -z'
10 'z, x, y'
11 'y, z, x'
12 'x, y, z'
loop_
_atom_type_symbol
_atom_type_oxidation_number
Al0+ 0
Cu0+ 0
loop_
_atom_site_label
_atom_site_type_symbol
_atom_site_symmetry_multiplicity
_atom_site_Wyckoff_symbol
_atom_site_fract_x
_atom_site_fract_y
_atom_site_fract_z
_atom_site_B_iso_or_equiv
_atom_site_occupancy
_atom_site_attached_hydrogens
Al1 Al0+ 4 a 0.06 0.06 0.06 . 1. 0
Cu1 Cu0+ 4 a 0.683 0.683 0.683 . 1. 0
Cu2 Cu0+ 12 b 0.117 0.213 0.451 . 1. 0
