
#(C) 2017 by FIZ Karlsruhe - Leibniz Institute for Information Infrastructure.  All rights reserved.
data_60762-ICSD
_database_code_ICSD 60762
_audit_creation_date 1988-02-22
_audit_update_record 2010-08-01
_chemical_name_systematic 'Dipotassium sulfate(IV)'
_chemical_formula_structural 'K2 (S O3)'
_chemical_formula_sum 'K2 O3 S1'
_chemical_name_structure_type K2SO3
_exptl_crystal_density_diffrn 2.49
_publ_section_title 'The structure of potassium sulfite'
loop_
_citation_id
_citation_journal_full
_citation_year
_citation_journal_volume
_citation_page_first
_citation_page_last
_citation_journal_id_ASTM
primary 'Acta Chemica Scandinavica, Series A: (28,1974-)' 1986 40 479 480 ACAPCT
loop_
_publ_author_name
'Andersen, L.'
'Stroemberg, D.'
_cell_length_a 5.915(1)
_cell_length_b 5.915(1)
_cell_length_c 6.968(2)
_cell_angle_alpha 90.
_cell_angle_beta 90.
_cell_angle_gamma 120.
_cell_volume 211.13
_cell_formula_units_Z 2
_symmetry_space_group_name_H-M 'P -3 m 1'
_symmetry_Int_Tables_number 164
_refine_ls_R_factor_all 0.028
loop_
_symmetry_equiv_pos_site_id
_symmetry_equiv_pos_as_xyz
1 'x-y, -y, -z'
2 '-x, -x+y, -z'
3 'y, x, -z'
4 'x-y, x, -z'
5 'y, -x+y, -z'
6 '-x, -y, -z'
7 '-x+y, y, z'
8 'x, x-y, z'
9 '-y, -x, z'
10 '-x+y, -x, z'
11 '-y, x-y, z'
12 'x, y, z'
loop_
_atom_type_symbol
_atom_type_oxidation_number
K1+ 1
S4+ 4
O2- -2
loop_
_atom_site_label
_atom_site_type_symbol
_atom_site_symmetry_multiplicity
_atom_site_Wyckoff_symbol
_atom_site_fract_x
_atom_site_fract_y
_atom_site_fract_z
_atom_site_B_iso_or_equiv
_atom_site_occupancy
_atom_site_attached_hydrogens
K1 K1+ 1 a 0 0 0 1.79(1) 1. 0
K2 K1+ 1 b 0 0 0.5 1.90(1) 1. 0
K3 K1+ 2 d 0.3333 0.6667 0.6746(1) 1.96(1) 1. 0
S1 S4+ 2 d 0.3333 0.6667 0.1835(1) 1.40(1) 1. 0
O1 O2- 6 i 0.1977(2) 0.3954(4) 0.2700(2) 2.75(5) 1. 0
#End of TTdata_60762-ICSD