
#(C) 2017 by FIZ Karlsruhe - Leibniz Institute for Information Infrastructure.  All rights reserved.
data_60760-ICSD
_database_code_ICSD 60760
_audit_creation_date 1987-03-16
_audit_update_record 2010-02-01
_chemical_name_systematic 'Platinum iodide - beta'
_chemical_formula_structural 'Pt I2'
_chemical_formula_sum 'I2 Pt1'
_chemical_name_structure_type PtI2
_exptl_crystal_density_diffrn 7.73
_publ_section_title 'Die Platiniodide Pt I2 und Pt3 I8'
loop_
_citation_id
_citation_journal_full
_citation_year
_citation_journal_volume
_citation_page_first
_citation_page_last
_citation_journal_id_ASTM
primary 'Zeitschrift fuer Anorganische und Allgemeine Chemie (1950) (DE)' 1986
539 141 153 ZAACAB
loop_
_publ_author_name
'Thiele, G.'
'Weigl, W.'
'Wochner, H.'
_cell_length_a 6.5877(6)
_cell_length_b 8.7150(34)
_cell_length_c 6.8894(11)
_cell_angle_alpha 90.
_cell_angle_beta 102.76
_cell_angle_gamma 90.
_cell_volume 385.76
_cell_formula_units_Z 4
_symmetry_space_group_name_H-M 'P 1 21/c 1'
_symmetry_Int_Tables_number 14
_refine_ls_R_factor_all 0.0795
loop_
_symmetry_equiv_pos_site_id
_symmetry_equiv_pos_as_xyz
1 'x, -y+1/2, z+1/2'
2 '-x, -y, -z'
3 '-x, y+1/2, -z+1/2'
4 'x, y, z'
loop_
_atom_type_symbol
_atom_type_oxidation_number
Pt2+ 2
I1- -1
loop_
_atom_site_label
_atom_site_type_symbol
_atom_site_symmetry_multiplicity
_atom_site_Wyckoff_symbol
_atom_site_fract_x
_atom_site_fract_y
_atom_site_fract_z
_atom_site_B_iso_or_equiv
_atom_site_occupancy
_atom_site_attached_hydrogens
Pt1 Pt2+ 4 e 0.2368(1) 0.1275(1) -.0038(1) . 1. 0
I1 I1- 4 e -.0151(2) 0.0783(1) 0.2283(1) . 1. 0
I2 I1- 4 e 0.4596(1) 0.3273(1) 0.2328(1) . 1. 0
loop_
_atom_site_aniso_label
_atom_site_aniso_type_symbol
_atom_site_aniso_U_11
_atom_site_aniso_U_22
_atom_site_aniso_U_33
_atom_site_aniso_U_12
_atom_site_aniso_U_13
_atom_site_aniso_U_23
Pt1 Pt2+ 0.0184(2) 0.0103(2) 0.0121(2) 0.0002(1) 0.0022(2) -.0012(1)
I1 I1- 0.0261(4) 0.0209(4) 0.0167(4) -.0063(3) 0.0072(3) -.0080(3)
I2 I1- 0.0206(4) 0.0169(4) 0.0169(4) -.0044(3) 0.0054(3) -.0041(3)
#End of TTdata_60760-ICSD