
#(C) 2017 by FIZ Karlsruhe - Leibniz Institute for Information Infrastructure.  All rights reserved.
data_60828-ICSD
_database_code_ICSD 60828
_audit_creation_date 1988-02-22
_audit_update_record 2013-02-01
_chemical_name_systematic 'Calcium platinum arsenide'
_chemical_formula_structural 'Ca Pt As'
_chemical_formula_sum 'As1 Ca1 Pt1'
_exptl_crystal_density_diffrn 8.08
_publ_section_title

;
Darstellung und Struktur von Ca(Eu)PtX (X=P,As,Sb), CaPtxP2-x, EuPtxP(As)2-x
und CaPtxAs0.9
;
loop_
_citation_id
_citation_journal_full
_citation_year
_citation_journal_volume
_citation_page_first
_citation_page_last
_citation_journal_id_ASTM
primary 'Zeitschrift fuer Anorganische und Allgemeine Chemie (1950) (DE)' 1986
543 49 62 ZAACAB
loop_
_publ_author_name
'Wenski, G.'
'Mewis, A.'
_cell_length_a 4.183(1)
_cell_length_b 4.183(1)
_cell_length_c 43.711(5)
_cell_angle_alpha 90.
_cell_angle_beta 90.
_cell_angle_gamma 90.
_cell_volume 764.83
_cell_formula_units_Z 12
_symmetry_space_group_name_H-M 'I 41 m d'
_symmetry_Int_Tables_number 109
_refine_ls_R_factor_all 0.052
loop_
_symmetry_equiv_pos_site_id
_symmetry_equiv_pos_as_xyz
1 'y, -x+1/2, z+1/4'
2 '-y, x+1/2, z+1/4'
3 'x, -y, z'
4 '-x, y, z'
5 '-y, -x+1/2, z+1/4'
6 'y, x+1/2, z+1/4'
7 '-x, -y, z'
8 'x, y, z'
9 'y+1/2, -x, z+3/4'
10 '-y+1/2, x, z+3/4'
11 'x+1/2, -y+1/2, z+1/2'
12 '-x+1/2, y+1/2, z+1/2'
13 '-y+1/2, -x, z+3/4'
14 'y+1/2, x, z+3/4'
15 '-x+1/2, -y+1/2, z+1/2'
16 'x+1/2, y+1/2, z+1/2'
loop_
_atom_type_symbol
_atom_type_oxidation_number
Ca0+ 0
Pt0+ 0
As0+ 0
loop_
_atom_site_label
_atom_site_type_symbol
_atom_site_symmetry_multiplicity
_atom_site_Wyckoff_symbol
_atom_site_fract_x
_atom_site_fract_y
_atom_site_fract_z
_atom_site_B_iso_or_equiv
_atom_site_occupancy
_atom_site_attached_hydrogens
Ca1 Ca0+ 4 a 0 0 0.0000(6) 0.0138(60) 1. 0
Ca2 Ca0+ 4 a 0 0 0.1665(5) 0.0092(56) 1. 0
Ca3 Ca0+ 4 a 0 0 0.8335(6) 0.0348(94) 1. 0
Pt1 Pt0+ 4 a 0 0 0.3044(1) 0.0210(21) 1. 0
Pt2 Pt0+ 4 a 0 0 0.4707(2) 0.0215(16) 1. 0
Pt3 Pt0+ 4 a 0 0 0.6379 0.0022(10) 1. 0
As1 As0+ 4 a 0 0 0.3608(3) 0.0300(49) 1. 0
As2 As0+ 4 a 0 0 0.5265(2) 0.0147(50) 1. 0
As3 As0+ 4 a 0 0 0.6937(2) 0.0093(34) 1. 0
#End of TTdata_60828-ICSD