
#(C) 2017 by FIZ Karlsruhe - Leibniz Institute for Information Infrastructure.  All rights reserved.
data_60830-ICSD
_database_code_ICSD 60830
_audit_creation_date 1988-02-22
_audit_update_record 2013-02-01
_chemical_name_systematic 'Calcium platinum antimonide'
_chemical_formula_structural 'Ca Pt Sb'
_chemical_formula_sum 'Ca1 Pt1 Sb1'
_chemical_name_structure_type TiNiSi-MgSrSi
_exptl_crystal_density_diffrn 9.
_publ_section_title

;
Darstellung und Struktur von Ca(Eu)PtX (X=P,As,Sb), CaPtxP2-x, EuPtxP(As)2-x
und CaPtxAs0.9
;
loop_
_citation_id
_citation_journal_full
_citation_year
_citation_journal_volume
_citation_page_first
_citation_page_last
_citation_journal_id_ASTM
primary 'Zeitschrift fuer Anorganische und Allgemeine Chemie (1950) (DE)' 1986
543 49 62 ZAACAB
loop_
_publ_author_name
'Wenski, G.'
'Mewis, A.'
_cell_length_a 7.317(1)
_cell_length_b 4.574(1)
_cell_length_c 7.869(1)
_cell_angle_alpha 90.
_cell_angle_beta 90.
_cell_angle_gamma 90.
_cell_volume 263.36
_cell_formula_units_Z 4
_symmetry_space_group_name_H-M 'P n m a'
_symmetry_Int_Tables_number 62
_refine_ls_R_factor_all 0.048
loop_
_symmetry_equiv_pos_site_id
_symmetry_equiv_pos_as_xyz
1 'x+1/2, y, -z+1/2'
2 'x, -y+1/2, z'
3 '-x+1/2, y+1/2, z+1/2'
4 '-x, -y, -z'
5 '-x+1/2, -y, z+1/2'
6 '-x, y+1/2, -z'
7 'x+1/2, -y+1/2, -z+1/2'
8 'x, y, z'
loop_
_atom_type_symbol
_atom_type_oxidation_number
Ca0+ 0
Pt0+ 0
Sb0+ 0
loop_
_atom_site_label
_atom_site_type_symbol
_atom_site_symmetry_multiplicity
_atom_site_Wyckoff_symbol
_atom_site_fract_x
_atom_site_fract_y
_atom_site_fract_z
_atom_site_B_iso_or_equiv
_atom_site_occupancy
_atom_site_attached_hydrogens
Ca1 Ca0+ 4 c 0.0064(17) 0.25 0.6963(8) . 1. 0
Pt1 Pt0+ 4 c 0.3035(3) 0.25 0.4154(3) . 1. 0
Sb1 Sb0+ 4 c 0.1879(4) 0.25 0.0908(4) . 1. 0
loop_
_atom_site_aniso_label
_atom_site_aniso_type_symbol
_atom_site_aniso_U_11
_atom_site_aniso_U_22
_atom_site_aniso_U_33
_atom_site_aniso_U_12
_atom_site_aniso_U_13
_atom_site_aniso_U_23
Ca1 Ca0+ 0.0105(31) 0.0133(25) 0.0087(23) 0 -.0003(41) 0
Pt1 Pt0+ 0.0146(9) 0.0089(7) 0.0060(7) 0 -.0009(11) 0
Sb1 Sb0+ 0.0102(14) 0.0075(11) 0.0056(11) 0 0.0016(17) 0
#End of TTdata_60830-ICSD