
#(C) 2017 by FIZ Karlsruhe - Leibniz Institute for Information Infrastructure.  All rights reserved.
data_60856-ICSD
_database_code_ICSD 60856
_audit_creation_date 1988-02-22
_audit_update_record 2004-10-01
_chemical_name_systematic 'Pentascandium octachloride nitride'
_chemical_formula_structural 'Sc5 Cl8 N'
_chemical_formula_sum 'Cl8 N1 Sc5'
_chemical_name_structure_type Sc5Cl8C
_exptl_crystal_density_diffrn 2.96
_publ_section_title

;
Synthesis, structure and properties of the infinite-chain compounds Sc5 Cl8 C
and Sc5 Cl8 N
;
loop_
_citation_id
_citation_journal_full
_citation_year
_citation_journal_volume
_citation_page_first
_citation_page_last
_citation_journal_id_ASTM
primary 'Inorganic Chemistry' 1987 26 469 473 INOCAJ
loop_
_publ_author_name
'Hwu, S.-J.'
'Dudis, D.S.'
'Corbett, J.D.'
_cell_length_a 17.85(1)
_cell_length_b 3.5505(7)
_cell_length_c 12.090(8)
_cell_angle_alpha 90.
_cell_angle_beta 130.13(4)
_cell_angle_gamma 90.
_cell_volume 585.84
_cell_formula_units_Z 2
_symmetry_space_group_name_H-M 'C 1 2/m 1'
_symmetry_Int_Tables_number 12
_refine_ls_R_factor_all 0.054
loop_
_symmetry_equiv_pos_site_id
_symmetry_equiv_pos_as_xyz
1 '-x, y, -z'
2 '-x, -y, -z'
3 'x, -y, z'
4 'x, y, z'
5 '-x+1/2, y+1/2, -z'
6 '-x+1/2, -y+1/2, -z'
7 'x+1/2, -y+1/2, z'
8 'x+1/2, y+1/2, z'
loop_
_atom_type_symbol
_atom_type_oxidation_number
Sc2+ 2.2
Cl1- -1
N3- -3
loop_
_atom_site_label
_atom_site_type_symbol
_atom_site_symmetry_multiplicity
_atom_site_Wyckoff_symbol
_atom_site_fract_x
_atom_site_fract_y
_atom_site_fract_z
_atom_site_B_iso_or_equiv
_atom_site_occupancy
_atom_site_attached_hydrogens
Sc1 Sc2+ 2 a 0 0 0 . 1. 0
Sc2 Sc2+ 4 i 0.4875(1) 0 0.6151(2) . 1. 0
Sc3 Sc2+ 4 i 0.3346(2) 0.5 0.3212(2) . 1. 0
Cl1 Cl1- 4 i 0.2973(2) 0 0.4310(3) . 1. 0
Cl2 Cl1- 4 i 0.1324(2) 0.5 0.1031(3) . 1. 0
Cl3 Cl1- 4 i 0.3271(2) 0 0.1626(3) . 1. 0
Cl4 Cl1- 4 i 0.5300(2) 0.5 0.2372(3) . 1. 0
N1 N3- 2 c 0.5 0.5 0.5 . 1. 0
#End of TTdata_60856-ICSD