
#(C) 2017 by FIZ Karlsruhe - Leibniz Institute for Information Infrastructure.  All rights reserved.
data_60957-ICSD
_database_code_ICSD 60957
_audit_creation_date 1988-02-22
_audit_update_record 2012-02-01
_chemical_name_systematic 'Pentayttrium molybdenum(IV) molybdenum(V) oxide'
_chemical_formula_structural 'Y5 Mo2 O12'
_chemical_formula_sum 'Mo2 O12 Y5'
_chemical_name_structure_type Y5Mo2O12
_exptl_crystal_density_diffrn 5.53
_publ_section_title

;
Structure and properties of Y5 Mo2 O12 and Gd5 Mo2 O12: Valence oxides with
structurally equivalent molybdenum atoms
;
loop_
_citation_id
_citation_journal_full
_citation_year
_citation_journal_volume
_citation_page_first
_citation_page_last
_citation_journal_id_ASTM
primary 'Journal of Solid State Chemistry' 1985 60 332 342 JSSCBI
loop_
_publ_author_name
'Torardi, C.C.'
'Fecketter, C.'
'McCarroll, W.H.'
'DiSalvo, F.J.'
_cell_length_a 12.2376(7)
_cell_length_b 5.7177(8)
_cell_length_c 7.4835(5)
_cell_angle_alpha 90.
_cell_angle_beta 108.034(5)
_cell_angle_gamma 90.
_cell_volume 497.9
_cell_formula_units_Z 2
_symmetry_space_group_name_H-M 'C 1 2/m 1'
_symmetry_Int_Tables_number 12
_refine_ls_R_factor_all 0.058
loop_
_symmetry_equiv_pos_site_id
_symmetry_equiv_pos_as_xyz
1 '-x, y, -z'
2 '-x, -y, -z'
3 'x, -y, z'
4 'x, y, z'
5 '-x+1/2, y+1/2, -z'
6 '-x+1/2, -y+1/2, -z'
7 'x+1/2, -y+1/2, z'
8 'x+1/2, y+1/2, z'
loop_
_atom_type_symbol
_atom_type_oxidation_number
Mo4+ 4.5
Y3+ 3
O2- -2
loop_
_atom_site_label
_atom_site_type_symbol
_atom_site_symmetry_multiplicity
_atom_site_Wyckoff_symbol
_atom_site_fract_x
_atom_site_fract_y
_atom_site_fract_z
_atom_site_B_iso_or_equiv
_atom_site_occupancy
_atom_site_attached_hydrogens
Mo1 Mo4+ 4 g 0 0.7183(1) 0 . 1. 0
Y1 Y3+ 4 i 0.19364(6) 0 0.36027(9) . 1. 0
Y2 Y3+ 4 i 0.81488(8) 0 0.17640(9) . 1. 0
Y3 Y3+ 2 d 0 0.5 0.5 . 1. 0
O1 O2- 8 j 0.6630(3) 0.2544(7) 0.0818(5) . 1. 0
O2 O2- 8 j 0.8454(3) 0.7513(7) 0.4245(5) . 1. 0
O3 O2- 4 i 0.5002(4) 0 0.7971(7) . 1. 0
O4 O2- 4 i 0.0006(4) 0 0.1816(7) . 1. 0
loop_
_atom_site_aniso_label
_atom_site_aniso_type_symbol
_atom_site_aniso_B_11
_atom_site_aniso_B_22
_atom_site_aniso_B_33
_atom_site_aniso_B_12
_atom_site_aniso_B_13
_atom_site_aniso_B_23
Mo1 Mo4+ 0.21(2) 0.43(1) 0.20(2) 0 -.02(1) 0
Y1 Y3+ 0.25(5) 0.37(2) 0.20(2) 0 -.07(2) 0
Y2 Y3+ 0.23(2) 0.42(2) 0.34(2) 0 0.03(2) 0
Y3 Y3+ 0.28(3) 0.64(4) 0.18(3) 0 -.02(3) 0
O1 O2- 0.21(11) 0.71(14) 0.49(12) 0.03(11) 0.06(10) -.02(11)
O2 O2- 0.5(1) 0.4(1) 0.4(1) 0.1(1) 0.0(1) 0.1(1)
O3 O2- 0.7(2) 0.8(2) 0.3(2) 0 0.2(1) 0
O4 O2- 0.3(2) 0.6(2) 0.2(2) 0 0.1(1) 0
#End of TTdata_60957-ICSD