
#(C) 2017 by FIZ Karlsruhe - Leibniz Institute for Information Infrastructure.  All rights reserved.
data_60960-ICSD
_database_code_ICSD 60960
_audit_creation_date 1988-02-22
_audit_update_record 2005-10-01
_chemical_name_systematic 'Cesium dicopper dichloride iodide'
_chemical_formula_structural 'Cs Cu2 Cl2 I'
_chemical_formula_sum 'Cl2 Cs1 Cu2 I1'
_chemical_name_structure_type SbPO4
_exptl_crystal_density_diffrn 4.41
_publ_section_title 'Crystal structures of Cs Cu2 Cl2 I and Cs Cu2 Cl I2'
loop_
_citation_id
_citation_journal_full
_citation_year
_citation_journal_volume
_citation_page_first
_citation_page_last
_citation_journal_id_ASTM
primary 'Journal of Solid State Chemistry' 1985 59 116 122 JSSCBI
loop_
_publ_author_name
'Geller, S.'
'Gaines, J.M.'
_cell_length_a 8.27(1)
_cell_length_b 5.76(1)
_cell_length_c 7.62(1)
_cell_angle_alpha 90.
_cell_angle_beta 108.4(2)
_cell_angle_gamma 90.
_cell_volume 344.42
_cell_formula_units_Z 2
_symmetry_space_group_name_H-M 'P 1 21/m 1'
_symmetry_Int_Tables_number 11
_refine_ls_R_factor_all 0.073
loop_
_symmetry_equiv_pos_site_id
_symmetry_equiv_pos_as_xyz
1 'x, -y+1/2, z'
2 '-x, -y, -z'
3 '-x, y+1/2, -z'
4 'x, y, z'
loop_
_atom_type_symbol
_atom_type_oxidation_number
Cs1+ 1
Cu1+ 1
Cl1- -1
I1- -1
loop_
_atom_site_label
_atom_site_type_symbol
_atom_site_symmetry_multiplicity
_atom_site_Wyckoff_symbol
_atom_site_fract_x
_atom_site_fract_y
_atom_site_fract_z
_atom_site_B_iso_or_equiv
_atom_site_occupancy
_atom_site_attached_hydrogens
Cs1 Cs1+ 2 e -.3451(4) 0.25 0.3382(4) . 1. 0
Cu1 Cu1+ 4 f -.1660(4) 0.0020(9) -.1296(5) . 1. 0
Cl1 Cl1- 2 e -.394(1) 0.25 -.143(1) . 1. 0
Cl2 Cl1- 2 e 0.246(1) 0.25 0.386(1) . 1. 0
I1 I1- 2 e 0.0908(3) 0.25 -.1791(3) . 1. 0
loop_
_atom_site_aniso_label
_atom_site_aniso_type_symbol
_atom_site_aniso_beta_11
_atom_site_aniso_beta_22
_atom_site_aniso_beta_33
_atom_site_aniso_beta_12
_atom_site_aniso_beta_13
_atom_site_aniso_beta_23
Cs1 Cs1+ 0.0174(4) 0.047(1) 0.0225(5) 0 0.0052(8) 0
Cu1 Cu1+ 0.0184(6) 0.056(2) 0.0241(7) 0.000(2) 0.004(1) -.001(2)
Cl1 Cl1- 0.012(1) 0.035(4) 0.021(2) 0 0.001(3) 0
Cl2 Cl1- 0.022(2) 0.037(4) 0.017(2) 0 -.001(3) 0
I1 I1- 0.0134(4) 0.046(1) 0.0167(4) 0 0.0043(6) 0
#End of TTdata_60960-ICSD