
#(C) 2017 by FIZ Karlsruhe - Leibniz Institute for Information Infrastructure.  All rights reserved.
data_61039-ICSD
_database_code_ICSD 61039
_audit_creation_date 1986-12-03
_audit_update_record 2012-08-01
_chemical_name_systematic 'Dimagnesium pentaruthenium tetraboride'
_chemical_formula_structural 'Mg2 Ru5 B4'
_chemical_formula_sum 'B4 Mg2 Ru5'
_exptl_crystal_density_diffrn 8.02
_publ_section_title

;
Mg2 Ru5 B4 und Mg5 Ru13 B11, zwei ternaere Magnesium-Ruthenium-boride mit
Kanalstrukturen
;
loop_
_citation_id
_citation_journal_full
_citation_year
_citation_journal_volume
_citation_page_first
_citation_page_last
_citation_journal_id_ASTM
primary 'Zeitschrift fuer Anorganische und Allgemeine Chemie (1950) (DE)' 1985
530 127 134 ZAACAB
loop_
_publ_author_name
'Schweitzer, K.'
'Jung, W.'
_cell_length_a 10.000(2)
_cell_length_b 8.376(1)
_cell_length_c 2.9542(3)
_cell_angle_alpha 90.
_cell_angle_beta 90.
_cell_angle_gamma 90.
_cell_volume 247.44
_cell_formula_units_Z 2
_symmetry_space_group_name_H-M 'P b a m'
_symmetry_Int_Tables_number 55
_refine_ls_R_factor_all 0.056
loop_
_symmetry_equiv_pos_site_id
_symmetry_equiv_pos_as_xyz
1 'x+1/2, -y+1/2, z'
2 '-x+1/2, y+1/2, z'
3 'x, y, -z'
4 '-x, -y, -z'
5 '-x+1/2, y+1/2, -z'
6 'x+1/2, -y+1/2, -z'
7 '-x, -y, z'
8 'x, y, z'
loop_
_atom_type_symbol
_atom_type_oxidation_number
Ru0+ 0
Mg0+ 0
B0+ 0
loop_
_atom_site_label
_atom_site_type_symbol
_atom_site_symmetry_multiplicity
_atom_site_Wyckoff_symbol
_atom_site_fract_x
_atom_site_fract_y
_atom_site_fract_z
_atom_site_B_iso_or_equiv
_atom_site_occupancy
_atom_site_attached_hydrogens
Ru1 Ru0+ 4 g 0.2621(1) 0.6033(1) 0 . 1. 0
Ru2 Ru0+ 2 c 0.5 0 0 . 1. 0
Ru3 Ru0+ 4 g 0.4522(1) 0.3436(1) 0 . 1. 0
Mg1 Mg0+ 4 h 0.1843(4) 0.3509(5) 0.5 . 1. 0
B1 B0+ 4 h 0.397(1) 0.147(2) 0.5 . 1. 0
B2 B0+ 4 h 0.091(1) 0.044(2) 0.5 . 1. 0
loop_
_atom_site_aniso_label
_atom_site_aniso_type_symbol
_atom_site_aniso_U_11
_atom_site_aniso_U_22
_atom_site_aniso_U_33
_atom_site_aniso_U_12
_atom_site_aniso_U_13
_atom_site_aniso_U_23
Ru1 Ru0+ 0.0048(4) 0.0052(3) 0.0045(4) 0.0004(3) 0 0
Ru2 Ru0+ 0.0059(5) 0.0039(5) 0.0042(6) 0.0009(4) 0 0
Ru3 Ru0+ 0.0055(4) 0.0030(3) 0.0041(4) 0.0002(3) 0 0
Mg1 Mg0+ 0.0096(18) 0.0010(15) 0.0027(17) 0.0024(15) 0 0
B1 B0+ 0.0121(56) 0.0017(52) 0.0066(56) 0.0044(54) 0 0
B2 B0+ 0.0062(46) 0.0046(53) 0.0084(68) -.0014(38) 0 0
#End of TTdata_61039-ICSD