
#(C) 2017 by FIZ Karlsruhe - Leibniz Institute for Information Infrastructure, and the U.S. Secretary of
#Commerce on behalf of the United States.  All rights reserved.
data_610502-ICSD
_database_code_ICSD 610502
_audit_creation_date 2013-02-01
_chemical_name_systematic 'Niobium iron arsenide (1/1/1)'
_chemical_formula_structural 'Nb Fe As'
_chemical_formula_sum 'As1 Fe1 Nb1'
_chemical_name_structure_type TiNiSi-MgSrSi
_exptl_crystal_density_diffrn 8.85
_publ_section_title
'Ternary transition metal arsenides with the anti - Pb Cl2 structure'
_publ_section_comment 'Cell and Type only determined'
loop_
_citation_id
_citation_journal_full
_citation_year
_citation_journal_volume
_citation_page_first
_citation_page_last
_citation_journal_id_ASTM
primary 'Acta Chemica Scandinavica (1-27,1973-42,1988)' 1967 21 813 814 ACSAA4
loop_
_publ_author_name
'Rundqvist, S.'
'Tansuriwongs, P.'
_cell_length_a 6.258
_cell_length_b 3.734
_cell_length_c 7.181
_cell_angle_alpha 90.
_cell_angle_beta 90.
_cell_angle_gamma 90.
_cell_volume 167.8
_cell_formula_units_Z 4
_symmetry_space_group_name_H-M 'P n m a'
_symmetry_Int_Tables_number 62
loop_
_symmetry_equiv_pos_site_id
_symmetry_equiv_pos_as_xyz
1 'x+1/2, y, -z+1/2'
2 'x, -y+1/2, z'
3 '-x+1/2, y+1/2, z+1/2'
4 '-x, -y, -z'
5 '-x+1/2, -y, z+1/2'
6 '-x, y+1/2, -z'
7 'x+1/2, -y+1/2, -z+1/2'
8 'x, y, z'
loop_
_atom_type_symbol
_atom_type_oxidation_number
Fe0+ 0
Nb0+ 0
As0+ 0
loop_
_atom_site_label
_atom_site_type_symbol
_atom_site_symmetry_multiplicity
_atom_site_Wyckoff_symbol
_atom_site_fract_x
_atom_site_fract_y
_atom_site_fract_z
_atom_site_B_iso_or_equiv
_atom_site_occupancy
_atom_site_attached_hydrogens
Fe1 Fe0+ 4 c 0.142 0.25 0.06 . 1. 0
Nb1 Nb0+ 4 c 0.021 0.25 0.682 . 1. 0
As1 As0+ 4 c 0.265 0.25 0.376 . 1. 0
#End of TTdata_610502-ICSD