
#(C) 2017 by FIZ Karlsruhe - Leibniz Institute for Information Infrastructure, and the U.S. Secretary of
#Commerce on behalf of the United States.  All rights reserved.
data_610636-ICSD
_database_code_ICSD 610636
_audit_creation_date 2013-02-01
_chemical_name_systematic 'Hafnium arsenide (1/2)'
_chemical_formula_structural 'Hf As2'
_chemical_formula_sum 'As2 Hf1'
_chemical_name_structure_type Co2Si
_exptl_crystal_density_diffrn 9.8
_publ_section_title 'New phases in the Hf-As system'
_publ_section_comment 'Cell and Type only determined'
loop_
_citation_id
_citation_journal_full
_citation_year
_citation_journal_volume
_citation_page_first
_citation_page_last
_citation_journal_id_ASTM
primary 'Acta Chemica Scandinavica (1-27,1973-42,1988)' 1968 22 2395 2396 ACSAA4
loop_
_publ_author_name
'Rundqvist, S.'
'Carlsson, B.'
_cell_length_a 6.7739(8)
_cell_length_b 3.6763(2)
_cell_length_c 8.9382(8)
_cell_angle_alpha 90.
_cell_angle_beta 90.
_cell_angle_gamma 90.
_cell_volume 222.59
_cell_formula_units_Z 4
_symmetry_space_group_name_H-M 'P n m a'
_symmetry_Int_Tables_number 62
loop_
_symmetry_equiv_pos_site_id
_symmetry_equiv_pos_as_xyz
1 'x+1/2, y, -z+1/2'
2 'x, -y+1/2, z'
3 '-x+1/2, y+1/2, z+1/2'
4 '-x, -y, -z'
5 '-x+1/2, -y, z+1/2'
6 '-x, y+1/2, -z'
7 'x+1/2, -y+1/2, -z+1/2'
8 'x, y, z'
loop_
_atom_type_symbol
_atom_type_oxidation_number
As2- -2
Hf4+ 4
loop_
_atom_site_label
_atom_site_type_symbol
_atom_site_symmetry_multiplicity
_atom_site_Wyckoff_symbol
_atom_site_fract_x
_atom_site_fract_y
_atom_site_fract_z
_atom_site_B_iso_or_equiv
_atom_site_occupancy
_atom_site_attached_hydrogens
As1 As2- 4 c 0.081 0.25 0.148 . 1. 0
As2 As2- 4 c 0.122 0.25 0.541 . 1. 0
Hf1 Hf4+ 4 c 0.225 0.25 0.841 . 1. 0
#End of TTdata_610636-ICSD