
#(C) 2017 by FIZ Karlsruhe - Leibniz Institute for Information Infrastructure, and the U.S. Secretary of
#Commerce on behalf of the United States.  All rights reserved.
data_610769-ICSD
_database_code_ICSD 610769
_audit_creation_date 2013-02-01
_chemical_name_systematic 'Lanthanum arsenide (1/2)'
_chemical_formula_structural 'La As2'
_chemical_formula_sum 'As2 La1'
_chemical_name_structure_type NdAs2
_exptl_crystal_density_diffrn 6.44
_publ_section_title 'Rare-earth arsenides'
_publ_section_comment 'Cell and Type only determined'
loop_
_citation_id
_citation_journal_full
_citation_year
_citation_journal_volume
_citation_page_first
_citation_page_last
_citation_journal_id_ASTM
primary 'Journal of the Less-Common Metals' 1970 22 51 59 JCOMAH
loop_
_publ_author_name
'Ono, S.'
'Despault, J.G.'
'Calvert, L.D.'
'Taylor, J.B.'
_cell_length_a 4.212
_cell_length_b 6.935
_cell_length_c 10.647
_cell_angle_alpha 90.
_cell_angle_beta 106.6
_cell_angle_gamma 90.
_cell_volume 298.04
_cell_formula_units_Z 4
_symmetry_space_group_name_H-M 'P 1 21/c 1'
_symmetry_Int_Tables_number 14
loop_
_symmetry_equiv_pos_site_id
_symmetry_equiv_pos_as_xyz
1 'x, -y+1/2, z+1/2'
2 '-x, -y, -z'
3 '-x, y+1/2, -z+1/2'
4 'x, y, z'
loop_
_atom_type_symbol
_atom_type_oxidation_number
La0+ 0
As0+ 0
loop_
_atom_site_label
_atom_site_type_symbol
_atom_site_symmetry_multiplicity
_atom_site_Wyckoff_symbol
_atom_site_fract_x
_atom_site_fract_y
_atom_site_fract_z
_atom_site_B_iso_or_equiv
_atom_site_occupancy
_atom_site_attached_hydrogens
La1 La0+ 4 e 0.912 0.313 0.14 . 1. 0
As1 As0+ 4 e 0.461 0.644 0.171 . 1. 0
As2 As0+ 4 e 0.273 0.378 0.45 . 1. 0
#End of TTdata_610769-ICSD