
#(C) 2017 by FIZ Karlsruhe - Leibniz Institute for Information Infrastructure.  All rights reserved.
data_61078-ICSD
_database_code_ICSD 61078
_audit_creation_date 1986-12-03
_audit_update_record 2007-08-01
_chemical_name_systematic 'Manganese molybdate - HT'
_chemical_formula_structural 'Mn (Mo O4)'
_chemical_formula_sum 'Mn1 Mo1 O4'
_chemical_name_structure_type Wolframite-NiWO4
_exptl_crystal_density_diffrn 5.18
_publ_section_title 'Preparation and structure of manganese molybdates'
loop_
_citation_id
_citation_journal_full
_citation_year
_citation_journal_volume
_citation_page_first
_citation_page_last
_citation_journal_id_ASTM
primary 'Inorganic Chemistry' 1985 24 4606 4609 INOCAJ
loop_
_publ_author_name
'Clearfield, A.'
'Moini, A.'
'Rudolf, P.R.'
_cell_length_a 4.818(1)
_cell_length_b 5.759(1)
_cell_length_c 4.965(1)
_cell_angle_alpha 90.
_cell_angle_beta 90.82(1)
_cell_angle_gamma 90.
_cell_volume 137.75
_cell_formula_units_Z 2
_symmetry_space_group_name_H-M 'P 1 2/c 1'
_symmetry_Int_Tables_number 13
_refine_ls_R_factor_all 0.039
loop_
_symmetry_equiv_pos_site_id
_symmetry_equiv_pos_as_xyz
1 'x, -y, z+1/2'
2 '-x, -y, -z'
3 '-x, y, -z+1/2'
4 'x, y, z'
loop_
_atom_type_symbol
_atom_type_oxidation_number
Mo6+ 6
Mn2+ 2
O2- -2
loop_
_atom_site_label
_atom_site_type_symbol
_atom_site_symmetry_multiplicity
_atom_site_Wyckoff_symbol
_atom_site_fract_x
_atom_site_fract_y
_atom_site_fract_z
_atom_site_B_iso_or_equiv
_atom_site_occupancy
_atom_site_attached_hydrogens
Mo1 Mo6+ 2 f 0.5 0.31448(8) 0.75 . 1. 0
Mn1 Mn2+ 2 e 0 0.1918(2) 0.25 . 1. 0
O1 O2- 4 g 0.2505(6) 0.1246(5) 0.6046(6) . 1. 0
O2 O2- 4 g 0.2875(6) 0.3972(5) 0.0527(6) . 1. 0
#End of TTdata_61078-ICSD