
#(C) 2017 by FIZ Karlsruhe - Leibniz Institute for Information Infrastructure, and the U.S. Secretary of
#Commerce on behalf of the United States.  All rights reserved.
data_611635-ICSD
_database_code_ICSD 611635
_audit_creation_date 2012-02-01
_chemical_name_systematic 'Barium auride (3/2)'
_chemical_formula_structural 'Ba3 Au2'
_chemical_formula_sum 'Au2 Ba3'
_chemical_name_structure_type Ho3Ni2
_exptl_crystal_density_diffrn 7.26
_publ_section_title

;
Structures of Ca3 Au, Ca5 Au2, Sr3 Au2, Ba3 Au2 and alloying behaviour of the
alkaline earths with Cu, Ag, Au
;
_publ_section_comment 'Cell and Type only determined'
loop_
_citation_id
_citation_journal_full
_citation_year
_citation_journal_volume
_citation_page_first
_citation_page_last
_citation_journal_id_ASTM
primary 'Revue de Chimie Minerale' 1985 22 791 798 RVCMA8
loop_
_publ_author_name
'Fornasini, M.L.'
'Merlo, F.'
'Pani, M.'
_cell_length_a 10.001(4)
_cell_length_b 10.001(4)
_cell_length_c 19.143(7)
_cell_angle_alpha 90.
_cell_angle_beta 90.
_cell_angle_gamma 120.
_cell_volume 1658.16
_cell_formula_units_Z 9
_symmetry_space_group_name_H-M 'R -3 H'
_symmetry_Int_Tables_number 148
loop_
_symmetry_equiv_pos_site_id
_symmetry_equiv_pos_as_xyz
1 'x-y, x, -z'
2 'y, -x+y, -z'
3 '-x, -y, -z'
4 '-x+y, -x, z'
5 '-y, x-y, z'
6 'x, y, z'
7 'x-y+2/3, x+1/3, -z+1/3'
8 'y+2/3, -x+y+1/3, -z+1/3'
9 '-x+2/3, -y+1/3, -z+1/3'
10 '-x+y+2/3, -x+1/3, z+1/3'
11 '-y+2/3, x-y+1/3, z+1/3'
12 'x+2/3, y+1/3, z+1/3'
13 'x-y+1/3, x+2/3, -z+2/3'
14 'y+1/3, -x+y+2/3, -z+2/3'
15 '-x+1/3, -y+2/3, -z+2/3'
16 '-x+y+1/3, -x+2/3, z+2/3'
17 '-y+1/3, x-y+2/3, z+2/3'
18 'x+1/3, y+2/3, z+2/3'
loop_
_atom_type_symbol
_atom_type_oxidation_number
Ba0+ 0
Au0+ 0
loop_
_atom_site_label
_atom_site_type_symbol
_atom_site_symmetry_multiplicity
_atom_site_Wyckoff_symbol
_atom_site_fract_x
_atom_site_fract_y
_atom_site_fract_z
_atom_site_B_iso_or_equiv
_atom_site_occupancy
_atom_site_attached_hydrogens
Ba1 Ba0+ 3 a 0 0 0 . 1. 0
Ba2 Ba0+ 6 c 0 0 0.209 . 1. 0
Ba3 Ba0+ 18 f 0.097 0.413 0.074 . 1. 0
Au1 Au0+ 18 f 0.31 0.247 0.104 . 1. 0
#End of TTdata_611635-ICSD