
#(C) 2017 by FIZ Karlsruhe - Leibniz Institute for Information Infrastructure, and the U.S. Secretary of
#Commerce on behalf of the United States.  All rights reserved.
data_611611-ICSD
_database_code_ICSD 611611
_audit_creation_date 2012-02-01
_chemical_name_systematic 'Zirconium arsenide (3/2)'
_chemical_formula_structural 'Zr3 As2'
_chemical_formula_sum 'As2 Zr3'
_chemical_name_structure_type Sb2S3
_exptl_crystal_density_diffrn 6.96
_publ_section_title 'Two new zirconium arsenides, Zr3 As2 and Zr8 As5'
_publ_section_comment 'Cell and Type only determined'
loop_
_citation_id
_citation_journal_full
_citation_year
_citation_journal_volume
_citation_page_first
_citation_page_last
_citation_journal_id_ASTM
primary 'Acta Chemica Scandinavica, Series A: (28,1974-)' 1976 30 386 387 ACAPCT
loop_
_publ_author_name
'Carlsson, B.'
'Golin, M.'
'Rundqvist, S.'
_cell_length_a 10.5348(6)
_cell_length_b 3.7185(4)
_cell_length_c 10.3103(18)
_cell_angle_alpha 90.
_cell_angle_beta 90.
_cell_angle_gamma 90.
_cell_volume 403.89
_cell_formula_units_Z 4
_symmetry_space_group_name_H-M 'P n m a'
_symmetry_Int_Tables_number 62
loop_
_symmetry_equiv_pos_site_id
_symmetry_equiv_pos_as_xyz
1 'x+1/2, y, -z+1/2'
2 'x, -y+1/2, z'
3 '-x+1/2, y+1/2, z+1/2'
4 '-x, -y, -z'
5 '-x+1/2, -y, z+1/2'
6 '-x, y+1/2, -z'
7 'x+1/2, -y+1/2, -z+1/2'
8 'x, y, z'
loop_
_atom_type_symbol
_atom_type_oxidation_number
As0+ 0
Zr0+ 0
loop_
_atom_site_label
_atom_site_type_symbol
_atom_site_symmetry_multiplicity
_atom_site_Wyckoff_symbol
_atom_site_fract_x
_atom_site_fract_y
_atom_site_fract_z
_atom_site_B_iso_or_equiv
_atom_site_occupancy
_atom_site_attached_hydrogens
As1 As0+ 4 c 0.012 0.25 0.322 . 1. 0
As2 As0+ 4 c 0.183 0.75 0.006 . 1. 0
Zr1 Zr0+ 4 c 0.049 0.25 0.87 . 1. 0
Zr2 Zr0+ 4 c 0.126 0.75 0.436 . 1. 0
Zr3 Zr0+ 4 c 0.222 0.25 0.206 . 1. 0
#End of TTdata_611611-ICSD