
#(C) 2017 by FIZ Karlsruhe - Leibniz Institute for Information Infrastructure, and the U.S. Secretary of
#Commerce on behalf of the United States.  All rights reserved.
data_611954-ICSD
_database_code_ICSD 611954
_audit_creation_date 2012-02-01
_audit_update_record 2017-08-01
_chemical_name_systematic 'Hafnium auride (1/4)'
_chemical_formula_structural 'Hf Au4'
_chemical_formula_sum 'Au4 Hf1'
_chemical_name_structure_type Au4Zr
_exptl_crystal_density_diffrn 18.65
_publ_section_title 'Einige strukturelle Ergebnisse an metallischen Phasen (6)'
_publ_section_comment 'Cell and Type only determined'
loop_
_citation_id
_citation_journal_full
_citation_year
_citation_journal_volume
_citation_page_first
_citation_page_last
_citation_journal_id_ASTM
primary Naturwissenschaften 1960 47 512 512 NATWAY
loop_
_publ_author_name
'Schubert, K.'
'Anantharaman, T.R.'
'Ata, H.O.K.'
'Meissner, H.G.'
'Poetzschke, M.'
'Rossteutscher, W.'
'Stolz, E.'
_cell_length_a 4.995
_cell_length_b 4.835
_cell_length_c 14.249
_cell_angle_alpha 90.
_cell_angle_beta 90.
_cell_angle_gamma 90.
_cell_volume 344.13
_cell_formula_units_Z 4
_symmetry_space_group_name_H-M 'P n m a'
_symmetry_Int_Tables_number 62
loop_
_symmetry_equiv_pos_site_id
_symmetry_equiv_pos_as_xyz
1 'x+1/2, y, -z+1/2'
2 'x, -y+1/2, z'
3 '-x+1/2, y+1/2, z+1/2'
4 '-x, -y, -z'
5 '-x+1/2, -y, z+1/2'
6 '-x, y+1/2, -z'
7 'x+1/2, -y+1/2, -z+1/2'
8 'x, y, z'
loop_
_atom_type_symbol
_atom_type_oxidation_number
Au0+ 0
Hf0+ 0
loop_
_atom_site_label
_atom_site_type_symbol
_atom_site_symmetry_multiplicity
_atom_site_Wyckoff_symbol
_atom_site_fract_x
_atom_site_fract_y
_atom_site_fract_z
_atom_site_B_iso_or_equiv
_atom_site_occupancy
_atom_site_attached_hydrogens
Au1 Au0+ 4 c 0.167 0.25 0 . 1. 0
Au2 Au0+ 4 c 0.167 0.25 0.2 . 1. 0
Au3 Au0+ 4 c 0.167 0.25 0.6 . 1. 0
Au4 Au0+ 4 c 0.167 0.25 0.8 . 1. 0
Hf1 Hf0+ 4 c 0.167 0.25 0.4 . 1. 0
#End of TTdata_611954-ICSD