
#(C) 2017 by FIZ Karlsruhe - Leibniz Institute for Information Infrastructure, and the U.S. Secretary of
#Commerce on behalf of the United States.  All rights reserved.
data_612020-ICSD
_database_code_ICSD 612020
_audit_creation_date 2013-02-01
_audit_update_record 2017-08-01
_chemical_name_systematic 'Indium auride (3/10)'
_chemical_formula_structural 'In3 Au10'
_chemical_formula_sum 'Au10 In3'
_exptl_crystal_density_diffrn 16.73
_publ_section_title 'Einige strukturelle Ergebnisse an metallischen Phasen. IV'
_publ_section_comment 'Cell and Type only determined'
loop_
_citation_id
_citation_journal_full
_citation_year
_citation_journal_volume
_citation_page_first
_citation_page_last
_citation_journal_id_ASTM
primary Naturwissenschaften 1959 46 647 648 NATWAY
loop_
_publ_author_name
'Schubert, K.'
'Balk, M.'
'Bhan, S.'
'Breimer, H.'
'Esslinger, P.'
'Stolz, E.'
_cell_length_a 10.545
_cell_length_b 10.545
_cell_length_c 4.769
_cell_angle_alpha 90.
_cell_angle_beta 90.
_cell_angle_gamma 120.
_cell_volume 459.25
_cell_formula_units_Z 2
_symmetry_space_group_name_H-M 'P -3'
_symmetry_Int_Tables_number 147
loop_
_symmetry_equiv_pos_site_id
_symmetry_equiv_pos_as_xyz
1 'x-y, x, -z'
2 'y, -x+y, -z'
3 '-x, -y, -z'
4 '-x+y, -x, z'
5 '-y, x-y, z'
6 'x, y, z'
loop_
_atom_type_symbol
_atom_type_oxidation_number
Au0+ 0
In0+ 0
loop_
_atom_site_label
_atom_site_type_symbol
_atom_site_symmetry_multiplicity
_atom_site_Wyckoff_symbol
_atom_site_fract_x
_atom_site_fract_y
_atom_site_fract_z
_atom_site_B_iso_or_equiv
_atom_site_occupancy
_atom_site_attached_hydrogens
Au1 Au0+ 6 g 0.113 0.169 0.25 . 1. 0
Au2 Au0+ 6 g 0.444 0.415 0.25 . 1. 0
Au3 Au0+ 6 g 0.211 0.505 0.25 . 1. 0
Au4 Au0+ 2 d 0.3333 0.6667 0.75 . 1. 0
In1 In0+ 6 g 0.363 0.104 0.25 . 1. 0
#End of TTdata_612020-ICSD