
data_612391-ICSD
_database_code_ICSD 612391
_audit_creation_date 2008-08-01
_chemical_name_systematic 'Gold telluride (1/2)'
_chemical_formula_structural 'Au Te2'
_chemical_formula_sum 'Au1 Te2'
_chemical_name_structure_type AuTe2(oP24)
_chemical_name_mineral Krennerite
_exptl_crystal_density_diffrn 9.24
_cell_length_a 16.54
_cell_length_b 8.817
_cell_length_c 4.458
_cell_angle_alpha 90.
_cell_angle_beta 90.
_cell_angle_gamma 90.
_cell_volume 650.12
_cell_formula_units_Z 8
_symmetry_space_group_name_H-M 'P m a 2'
_symmetry_Int_Tables_number 28
loop_
_symmetry_equiv_pos_site_id
_symmetry_equiv_pos_as_xyz
1 'x+1/2, -y, z'
2 '-x+1/2, y, z'
3 '-x, -y, z'
4 'x, y, z'
loop_
_atom_type_symbol
_atom_type_oxidation_number
Au0+ 0
Te0+ 0
loop_
_atom_site_label
_atom_site_type_symbol
_atom_site_symmetry_multiplicity
_atom_site_Wyckoff_symbol
_atom_site_fract_x
_atom_site_fract_y
_atom_site_fract_z
_atom_site_B_iso_or_equiv
_atom_site_occupancy
_atom_site_attached_hydrogens
Au1 Au0+ 2 a 0 0 0 . 1. 0
Au2 Au0+ 2 c 0.25 0.32 0.01 . 1. 0
Au3 Au0+ 4 d 0.12 0.67 0.5 . 1. 0
Te1 Te0+ 2 c 0.25 0.03 0.04 . 1. 0
Te2 Te0+ 2 c 0.25 0.63 0.04 . 1. 0
Te3 Te0+ 4 d 0 0.3 0.04 . 1. 0
Te4 Te0+ 4 d 0.13 0.37 0.5 . 1. 0
Te5 Te0+ 4 d 0.12 0.97 0.5 . 1. 0
