
#(C) 2017 by FIZ Karlsruhe - Leibniz Institute for Information Infrastructure, and the U.S. Secretary of
#Commerce on behalf of the United States.  All rights reserved.
data_612373-ICSD
_database_code_ICSD 612373
_audit_creation_date 2012-02-01
_chemical_name_systematic 'Tantalum auride (2/1)'
_chemical_formula_structural 'Ta2 Au'
_chemical_formula_sum 'Au1 Ta2'
_chemical_name_structure_type U(beta)-CrFe
_exptl_crystal_density_diffrn 17.53
_publ_section_title Tantal-Gold-Legierungen
_publ_section_comment 'Cell and Type only determined'
loop_
_citation_id
_citation_journal_full
_citation_year
_citation_journal_volume
_citation_page_first
_citation_page_last
_citation_journal_id_ASTM
primary 'Zeitschrift fuer Metallkunde' 1961 52 189 193 ZEMTAE
loop_
_publ_author_name
'Raub, E.'
'Beeskow, H.'
'Menzel, D.'
_cell_length_a 10.06
_cell_length_b 10.06
_cell_length_c 5.23
_cell_angle_alpha 90.
_cell_angle_beta 90.
_cell_angle_gamma 90.
_cell_volume 529.29
_cell_formula_units_Z 10
_symmetry_space_group_name_H-M 'P 42/m n m'
_symmetry_Int_Tables_number 136
loop_
_symmetry_equiv_pos_site_id
_symmetry_equiv_pos_as_xyz
1 '-y+1/2, x+1/2, -z+1/2'
2 'y+1/2, -x+1/2, -z+1/2'
3 'y, x, -z'
4 '-y, -x, -z'
5 'y+1/2, -x+1/2, z+1/2'
6 '-y+1/2, x+1/2, z+1/2'
7 '-y, -x, z'
8 'y, x, z'
9 'x+1/2, -y+1/2, -z+1/2'
10 '-x+1/2, y+1/2, -z+1/2'
11 'x, y, -z'
12 '-x, -y, -z'
13 '-x+1/2, y+1/2, z+1/2'
14 'x+1/2, -y+1/2, z+1/2'
15 '-x, -y, z'
16 'x, y, z'
loop_
_atom_type_symbol
_atom_type_oxidation_number
Au0+ 0
Ta0+ 0
Au0+ 0
Ta0+ 0
loop_
_atom_site_label
_atom_site_type_symbol
_atom_site_symmetry_multiplicity
_atom_site_Wyckoff_symbol
_atom_site_fract_x
_atom_site_fract_y
_atom_site_fract_z
_atom_site_B_iso_or_equiv
_atom_site_occupancy
_atom_site_attached_hydrogens
Au1 Au0+ 2 a 0 0 0 . 1. 0
Ta1 Ta0+ 4 f 0.399 0.399 0 . 1. 0
Ta2 Ta0+ 8 i 0.465 0.134 0 . 1. 0
Au2 Au0+ 8 i 0.747 0.061 0 . 1. 0
Ta3 Ta0+ 8 j 0.18 0.18 0.252 . 1. 0
#End of TTdata_612373-ICSD