
#(C) 2017 by FIZ Karlsruhe - Leibniz Institute for Information Infrastructure, and the U.S. Secretary of
#Commerce on behalf of the United States.  All rights reserved.
data_614445-ICSD
_database_code_ICSD 614445
_audit_creation_date 2012-02-01
_chemical_name_systematic 'Hafnium osmium boride (9/4/1)'
_chemical_formula_structural 'Hf9 Os4 B'
_chemical_formula_sum 'B1 Hf9 Os4'
_chemical_name_structure_type Hf9Mo4B/Al5Co2
_exptl_crystal_density_diffrn 14.79
_publ_section_title 'Neue kappa-Phasen'
_publ_section_comment 'Cell and Type only determined'
loop_
_citation_id
_citation_journal_full
_citation_year
_citation_journal_volume
_citation_page_first
_citation_page_last
_citation_journal_id_ASTM
primary 'Monatshefte fuer Chemie' 1973 104 1497 1504 MOCMB7
loop_
_publ_author_name
'Rogl, P.'
'Nowotny, H.'
_cell_length_a 8.512
_cell_length_b 8.512
_cell_length_c 8.51
_cell_angle_alpha 90.
_cell_angle_beta 90.
_cell_angle_gamma 120.
_cell_volume 533.98
_cell_formula_units_Z 2
_symmetry_space_group_name_H-M 'P 63/m m c'
_symmetry_Int_Tables_number 194
loop_
_symmetry_equiv_pos_site_id
_symmetry_equiv_pos_as_xyz
1 'x, x-y, -z+1/2'
2 '-x+y, y, -z+1/2'
3 '-y, -x, -z+1/2'
4 '-x+y, -x, -z+1/2'
5 '-y, x-y, -z+1/2'
6 'x, y, -z+1/2'
7 '-x, -x+y, z+1/2'
8 'x-y, -y, z+1/2'
9 'y, x, z+1/2'
10 'x-y, x, z+1/2'
11 'y, -x+y, z+1/2'
12 '-x, -y, z+1/2'
13 '-x, -x+y, -z'
14 'x-y, -y, -z'
15 'y, x, -z'
16 'x-y, x, -z'
17 'y, -x+y, -z'
18 '-x, -y, -z'
19 'x, x-y, z'
20 '-x+y, y, z'
21 '-y, -x, z'
22 '-x+y, -x, z'
23 '-y, x-y, z'
24 'x, y, z'
loop_
_atom_type_symbol
_atom_type_oxidation_number
Hf0+ 0
Os0+ 0
B0+ 0
loop_
_atom_site_label
_atom_site_type_symbol
_atom_site_symmetry_multiplicity
_atom_site_Wyckoff_symbol
_atom_site_fract_x
_atom_site_fract_y
_atom_site_fract_z
_atom_site_B_iso_or_equiv
_atom_site_occupancy
_atom_site_attached_hydrogens
Hf1 Hf0+ 12 k 0.203 .406 .047 . 1. 0
Hf2 Hf0+ 6 h 0.54 .08 .25 . 1. 0
Os1 Os0+ 6 h 0.89 .78 .25 . 1. 0
Os2 Os0+ 2 a 0 0 0 . 1. 0
B1 B0+ 2 c 0.3333 .6667 .25 . 1. 0
#End of TTdata_614445-ICSD