
#(C) 2017 by FIZ Karlsruhe - Leibniz Institute for Information Infrastructure, and the U.S. Secretary of
#Commerce on behalf of the United States.  All rights reserved.
data_614580-ICSD
_database_code_ICSD 614580
_audit_creation_date 2012-02-01
_chemical_name_systematic 'Yttrium iridium boride (1/4/4)'
_chemical_formula_structural 'Y Ir4 B4'
_chemical_formula_sum 'B4 Ir4 Y1'
_chemical_name_structure_type Co4NdB4
_exptl_crystal_density_diffrn 13.26
_publ_section_title

;
Ternary metal borides (La, Ce, Pr, Nd, Sm) Os4 B4 and (Y, La, Ce, Pr, Nd, Sm,,
Gd, Tb) Ir4 B4 with Nd Co4 B4 - type st
;
_publ_section_comment 'Cell and Type only determined'
loop_
_citation_id
_citation_journal_full
_citation_year
_citation_journal_volume
_citation_page_first
_citation_page_last
_citation_journal_id_ASTM
primary 'Monatshefte fuer Chemie' 1979 110 235 243 MOCMB7
loop_
_publ_author_name
'Rogl, P.'
_cell_length_a 7.547(3)
_cell_length_b 7.547(3)
_cell_length_c 3.980(2)
_cell_angle_alpha 90.
_cell_angle_beta 90.
_cell_angle_gamma 90.
_cell_volume 226.69
_cell_formula_units_Z 2
_symmetry_space_group_name_H-M 'P 42/n Z'
_symmetry_Int_Tables_number 86
loop_
_symmetry_equiv_pos_site_id
_symmetry_equiv_pos_as_xyz
1 '-y+1/2, x, -z+1/2'
2 'y, -x+1/2, -z+1/2'
3 'x+1/2, y+1/2, -z'
4 '-x, -y, -z'
5 'y+1/2, -x, z+1/2'
6 '-y, x+1/2, z+1/2'
7 '-x+1/2, -y+1/2, z'
8 'x, y, z'
loop_
_atom_type_symbol
_atom_type_oxidation_number
Y0+ 0
Ir0+ 0
B0+ 0
loop_
_atom_site_label
_atom_site_type_symbol
_atom_site_symmetry_multiplicity
_atom_site_Wyckoff_symbol
_atom_site_fract_x
_atom_site_fract_y
_atom_site_fract_z
_atom_site_B_iso_or_equiv
_atom_site_occupancy
_atom_site_attached_hydrogens
Y1 Y0+ 2 a 0.25 0.25 0.25 . 1. 0
Ir1 Ir0+ 8 g 0.598 0.138 0.356 . 1. 0
B1 B0+ 8 g 0.033 0.59 0.137 . 1. 0
#End of TTdata_614580-ICSD