
#(C) 2017 by FIZ Karlsruhe - Leibniz Institute for Information Infrastructure, and the U.S. Secretary of
#Commerce on behalf of the United States.  All rights reserved.
data_614634-ICSD
_database_code_ICSD 614634
_audit_creation_date 2012-02-01
_chemical_name_systematic 'Lanthanum osmium boride (1/4/4)'
_chemical_formula_structural 'La Os4 B4'
_chemical_formula_sum 'B4 La1 Os4'
_chemical_name_structure_type Co4NdB4
_exptl_crystal_density_diffrn 13.53
_publ_section_title

;
Structural chemistry and magnetic properties of RE (Os, Ir)4 B4 borides (RE =
rare earth)
;
_publ_section_comment 'Cell and Type only determined'
loop_
_citation_id
_citation_journal_full
_citation_year
_citation_journal_volume
_citation_page_first
_citation_page_last
_citation_journal_id_ASTM
primary 'Inorganic Chemistry' 1982 21 1128 1133 INOCAJ
loop_
_publ_author_name
'Hiebl, K.'
'Rogl, P.'
'Sienko, M.J.'
_cell_length_a 7.611
_cell_length_b 7.611
_cell_length_c 3.997
_cell_angle_alpha 90.
_cell_angle_beta 90.
_cell_angle_gamma 90.
_cell_volume 231.54
_cell_formula_units_Z 2
_symmetry_space_group_name_H-M 'P 42/n Z'
_symmetry_Int_Tables_number 86
loop_
_symmetry_equiv_pos_site_id
_symmetry_equiv_pos_as_xyz
1 '-y+1/2, x, -z+1/2'
2 'y, -x+1/2, -z+1/2'
3 'x+1/2, y+1/2, -z'
4 '-x, -y, -z'
5 'y+1/2, -x, z+1/2'
6 '-y, x+1/2, z+1/2'
7 '-x+1/2, -y+1/2, z'
8 'x, y, z'
loop_
_atom_type_symbol
_atom_type_oxidation_number
La0+ 0
Os0+ 0
B0+ 0
loop_
_atom_site_label
_atom_site_type_symbol
_atom_site_symmetry_multiplicity
_atom_site_Wyckoff_symbol
_atom_site_fract_x
_atom_site_fract_y
_atom_site_fract_z
_atom_site_B_iso_or_equiv
_atom_site_occupancy
_atom_site_attached_hydrogens
La1 La0+ 2 a 0.25 0.25 0.25 . 1. 0
Os1 Os0+ 8 g 0.606 0.142 0.363 . 1. 0
B1 B0+ 8 g 0.032 0.585 0.15 . 1. 0
#End of TTdata_614634-ICSD