
#(C) 2017 by FIZ Karlsruhe - Leibniz Institute for Information Infrastructure, and the U.S. Secretary of
#Commerce on behalf of the United States.  All rights reserved.
data_615145-ICSD
_database_code_ICSD 615145
_audit_creation_date 2012-02-01
_chemical_name_systematic 'Tungsten osmium boride (2/1/2)'
_chemical_formula_structural 'W2 Os B2'
_chemical_formula_sum 'B2 Os1 W2'
_chemical_name_structure_type Y3Co2
_exptl_crystal_density_diffrn 17.32
_publ_section_title
'New complex borides with Re B2- and Mo2 Ir B2 - type structure'
_publ_section_comment 'Cell and Type only determined'
loop_
_citation_id
_citation_journal_full
_citation_year
_citation_journal_volume
_citation_page_first
_citation_page_last
_citation_journal_id_ASTM
primary 'Journal of Solid State Chemistry' 1978 24 175 181 JSSCBI
loop_
_publ_author_name
'Rogl, P.'
'Rudy, E.'
_cell_length_a 9.612
_cell_length_b 7.52
_cell_length_c 3.074
_cell_angle_alpha 90.
_cell_angle_beta 90.
_cell_angle_gamma 90.
_cell_volume 222.2
_cell_formula_units_Z 4
_symmetry_space_group_name_H-M 'P n n m'
_symmetry_Int_Tables_number 58
loop_
_symmetry_equiv_pos_site_id
_symmetry_equiv_pos_as_xyz
1 'x+1/2, -y+1/2, z+1/2'
2 '-x+1/2, y+1/2, z+1/2'
3 'x, y, -z'
4 '-x, -y, -z'
5 '-x+1/2, y+1/2, -z+1/2'
6 'x+1/2, -y+1/2, -z+1/2'
7 '-x, -y, z'
8 'x, y, z'
loop_
_atom_type_symbol
_atom_type_oxidation_number
Os0+ 0
W0+ 0
B0+ 0
loop_
_atom_site_label
_atom_site_type_symbol
_atom_site_symmetry_multiplicity
_atom_site_Wyckoff_symbol
_atom_site_fract_x
_atom_site_fract_y
_atom_site_fract_z
_atom_site_B_iso_or_equiv
_atom_site_occupancy
_atom_site_attached_hydrogens
Os1 Os0+ 4 g 0.109 0.122 0 . 1. 0
W1 W0+ 4 g 0.368 0.312 0 . 1. 0
W2 W0+ 4 g 0.64 0.07 0 . 1. 0
B1 B0+ 4 g 0.035 0.616 0 . 1. 0
B2 B0+ 4 g 0.228 0.622 0 . 1. 0
#End of TTdata_615145-ICSD