
#(C) 2017 by FIZ Karlsruhe - Leibniz Institute for Information Infrastructure, and the U.S. Secretary of
#Commerce on behalf of the United States.  All rights reserved.
data_615683-ICSD
_database_code_ICSD 615683
_audit_creation_date 2013-02-01
_chemical_name_systematic 'Tungsten boride (1/4)'
_chemical_formula_structural 'W B4'
_chemical_formula_sum 'B4 W1'
_exptl_crystal_density_diffrn 8.34
_publ_section_title 'Solid State Reactions in the System Zr - W - B'
_publ_section_comment 'Cell and Type only determined'
loop_
_citation_id
_citation_journal_full
_citation_year
_citation_journal_volume
_citation_page_first
_citation_page_last
_citation_journal_id_ASTM
primary 'Annales de Chimie (Paris) (Vol=Year)' 1961 6 1339 1381 ANCPAC
loop_
_publ_author_name
'Helgorsky, J.'
_cell_length_a 6.34
_cell_length_b 6.34
_cell_length_c 4.5
_cell_angle_alpha 90.
_cell_angle_beta 90.
_cell_angle_gamma 90.
_cell_volume 180.88
_cell_formula_units_Z 4
_symmetry_space_group_name_H-M 'P 4/m b m'
_symmetry_Int_Tables_number 127
loop_
_symmetry_equiv_pos_site_id
_symmetry_equiv_pos_as_xyz
1 'y+1/2, x+1/2, -z'
2 '-y+1/2, -x+1/2, -z'
3 '-y, x, -z'
4 'y, -x, -z'
5 'x+1/2, -y+1/2, -z'
6 '-x+1/2, y+1/2, -z'
7 'x, y, -z'
8 '-x, -y, -z'
9 '-y+1/2, -x+1/2, z'
10 'y+1/2, x+1/2, z'
11 'y, -x, z'
12 '-y, x, z'
13 '-x+1/2, y+1/2, z'
14 'x+1/2, -y+1/2, z'
15 '-x, -y, z'
16 'x, y, z'
loop_
_atom_type_symbol
_atom_type_oxidation_number
W0+ 0
B0+ 0
loop_
_atom_site_label
_atom_site_type_symbol
_atom_site_symmetry_multiplicity
_atom_site_Wyckoff_symbol
_atom_site_fract_x
_atom_site_fract_y
_atom_site_fract_z
_atom_site_B_iso_or_equiv
_atom_site_occupancy
_atom_site_attached_hydrogens
W1 W0+ 4 g 0.31 0.81 0 . 1. 0
B1 B0+ 4 e 0 0 0.213 . 1. 0
B2 B0+ 4 h -.086 0.414 0.5 . 1. 0
B3 B0+ 8 j 0.174 0.042 0.5 . 1. 0
#End of TTdata_615683-ICSD