
#(C) 2017 by FIZ Karlsruhe - Leibniz Institute for Information Infrastructure.  All rights reserved.
data_6159-ICSD
_database_code_ICSD 6159
_audit_creation_date 1980-01-01
_audit_update_record 2006-04-01
_chemical_name_systematic 'Calcium platinum oxide (1/2/4)'
_chemical_formula_structural 'Ca Pt2 O4'
_chemical_formula_sum 'Ca1 O4 Pt2'
_exptl_crystal_density_diffrn 8.78
_publ_section_title
'Platinum bronzes. II. Crystal structures of Ca Pt2 O4 and Cd0.3 Pt3 O4'
loop_
_citation_id
_citation_journal_full
_citation_year
_citation_journal_volume
_citation_page_first
_citation_page_last
_citation_journal_id_ASTM
primary 'Inorganic Chemistry' 1974 13 110 115 INOCAJ
loop_
_publ_author_name
'Cahen, D.'
'Ibers, J.A.'
'Mueller, M.H.'
_cell_length_a 5.7786(5)
_cell_length_b 5.7786(5)
_cell_length_c 5.5989(7)
_cell_angle_alpha 90.
_cell_angle_beta 90.
_cell_angle_gamma 90.
_cell_volume 186.96
_cell_formula_units_Z 2
_symmetry_space_group_name_H-M 'P 42/m m c'
_symmetry_Int_Tables_number 131
_refine_ls_R_factor_all 0.16
loop_
_symmetry_equiv_pos_site_id
_symmetry_equiv_pos_as_xyz
1 'y, x, z+1/2'
2 '-y, -x, z+1/2'
3 '-x, y, z'
4 'x, -y, z'
5 '-y, x, -z+1/2'
6 'y, -x, -z+1/2'
7 'x, y, -z'
8 '-x, -y, -z'
9 '-y, -x, -z+1/2'
10 'y, x, -z+1/2'
11 'x, -y, -z'
12 '-x, y, -z'
13 'y, -x, z+1/2'
14 '-y, x, z+1/2'
15 '-x, -y, z'
16 'x, y, z'
loop_
_atom_type_symbol
_atom_type_oxidation_number
Ca2+ 2
Pt3+ 3
O2- -2
loop_
_atom_site_label
_atom_site_type_symbol
_atom_site_symmetry_multiplicity
_atom_site_Wyckoff_symbol
_atom_site_fract_x
_atom_site_fract_y
_atom_site_fract_z
_atom_site_B_iso_or_equiv
_atom_site_occupancy
_atom_site_attached_hydrogens
Ca1 Ca2+ 2 c 0 0.5 0 3.9 1. 0
Pt1 Pt3+ 4 j 0.242(4) 0 0 0.7 1. 0
O1 O2- 8 n 0.268(7) 0.268(7) 0.25 0.7 1. 0
#End of TTdata_6159-ICSD