
#(C) 2017 by FIZ Karlsruhe - Leibniz Institute for Information Infrastructure, and the U.S. Secretary of
#Commerce on behalf of the United States.  All rights reserved.
data_616174-ICSD
_database_code_ICSD 616174
_audit_creation_date 2012-02-01
_chemical_name_systematic 'Barium zinc (1/5)'
_chemical_formula_structural 'Ba Zn5'
_chemical_formula_sum 'Ba1 Zn5'
_chemical_name_structure_type BaZn5
_exptl_crystal_density_diffrn 6.37
_publ_section_title 'The Ba-Zn system'
_publ_section_comment 'Cell and Type only determined'
loop_
_citation_id
_citation_journal_full
_citation_year
_citation_journal_volume
_citation_page_first
_citation_page_last
_citation_journal_id_ASTM
primary 'Journal of the Less-Common Metals' 1985 114 305 310 JCOMAH
loop_
_publ_author_name
'Bruzzone, G.'
'Ferretti, M.'
'Merlo, F.'
_cell_length_a 10.788(8)
_cell_length_b 8.441(5)
_cell_length_c 5.318(3)
_cell_angle_alpha 90.
_cell_angle_beta 90.
_cell_angle_gamma 90.
_cell_volume 484.27
_cell_formula_units_Z 4
_symmetry_space_group_name_H-M 'C m c m'
_symmetry_Int_Tables_number 63
loop_
_symmetry_equiv_pos_site_id
_symmetry_equiv_pos_as_xyz
1 '-x, y, -z+1/2'
2 '-x, -y, z+1/2'
3 '-x, y, z'
4 '-x, -y, -z'
5 'x, -y, z+1/2'
6 'x, y, -z+1/2'
7 'x, -y, -z'
8 'x, y, z'
9 '-x+1/2, y+1/2, -z+1/2'
10 '-x+1/2, -y+1/2, z+1/2'
11 '-x+1/2, y+1/2, z'
12 '-x+1/2, -y+1/2, -z'
13 'x+1/2, -y+1/2, z+1/2'
14 'x+1/2, y+1/2, -z+1/2'
15 'x+1/2, -y+1/2, -z'
16 'x+1/2, y+1/2, z'
loop_
_atom_type_symbol
_atom_type_oxidation_number
Ba0+ 0
Zn0+ 0
loop_
_atom_site_label
_atom_site_type_symbol
_atom_site_symmetry_multiplicity
_atom_site_Wyckoff_symbol
_atom_site_fract_x
_atom_site_fract_y
_atom_site_fract_z
_atom_site_B_iso_or_equiv
_atom_site_occupancy
_atom_site_attached_hydrogens
Ba1 Ba0+ 4 c 0 0.665 0.25 . 1. 0
Zn1 Zn0+ 4 c 0 0.074 0.25 . 1. 0
Zn2 Zn0+ 8 e 0.204 0 0 . 1. 0
Zn3 Zn0+ 8 g 0.309 0.774 0.25 . 1. 0
#End of TTdata_616174-ICSD