
data_6166-ICSD
_database_code_ICSD 6166
_audit_creation_date 1980-01-01
_audit_update_record 2012-02-01
_chemical_name_systematic 'Zirconium oxide sulfide'
_chemical_formula_structural 'Zr O S'
_chemical_formula_sum 'O1 S1 Zr1'
_chemical_name_structure_type ZrOS
_exptl_crystal_density_diffrn 5.01
_cell_length_a 5.696(4)
_cell_length_b 5.696(4)
_cell_length_c 5.696(4)
_cell_angle_alpha 90.
_cell_angle_beta 90.
_cell_angle_gamma 90.
_cell_volume 184.8
_cell_formula_units_Z 4
_symmetry_space_group_name_H-M 'P 21 3'
_symmetry_Int_Tables_number 198
_refine_ls_R_factor_all 0.031
loop_
_symmetry_equiv_pos_site_id
_symmetry_equiv_pos_as_xyz
1 '-z+1/2, -x, y+1/2'
2 '-y+1/2, -z, x+1/2'
3 '-x+1/2, -y, z+1/2'
4 '-z, x+1/2, -y+1/2'
5 '-y, z+1/2, -x+1/2'
6 '-x, y+1/2, -z+1/2'
7 'z+1/2, -x+1/2, -y'
8 'y+1/2, -z+1/2, -x'
9 'x+1/2, -y+1/2, -z'
10 'z, x, y'
11 'y, z, x'
12 'x, y, z'
loop_
_atom_type_symbol
_atom_type_oxidation_number
Zr4+ 4
S2- -2
O2- -2
loop_
_atom_site_label
_atom_site_type_symbol
_atom_site_symmetry_multiplicity
_atom_site_Wyckoff_symbol
_atom_site_fract_x
_atom_site_fract_y
_atom_site_fract_z
_atom_site_B_iso_or_equiv
_atom_site_occupancy
_atom_site_attached_hydrogens
Zr1 Zr4+ 4 a 0.0701(3) 0.0701(3) 0.0701(3) . 1. 0
S1 S2- 4 a 0.3335(6) 0.3335(6) 0.3335(6) . 1. 0
O1 O2- 4 a 0.6535(16) 0.6535(16) 0.6535(16) . 1. 0
loop_
_atom_site_aniso_label
_atom_site_aniso_type_symbol
_atom_site_aniso_U_11
_atom_site_aniso_U_22
_atom_site_aniso_U_33
_atom_site_aniso_U_12
_atom_site_aniso_U_13
_atom_site_aniso_U_23
Zr1 Zr4+ 0.0066(8) 0.0066(8) 0.0066(8) -.0001(3) -.0001(3) -.0001(3)
S1 S2- 0.009(1) 0.009(1) 0.009(1) -.0001(5) -.0001(5) -.0001(5)
O1 O2- 0.009(3) 0.009(3) 0.009(3) -.001(2) -.001(2) -.001(2)
