
#(C) 2017 by FIZ Karlsruhe - Leibniz Institute for Information Infrastructure, and the U.S. Secretary of
#Commerce on behalf of the United States.  All rights reserved.
data_617073-ICSD
_database_code_ICSD 617073
_audit_creation_date 2012-02-01
_chemical_name_systematic 'Bismuth selenide (1/1)'
_chemical_formula_structural 'Bi Se'
_chemical_formula_sum 'Bi1 Se1'
_chemical_name_structure_type BiSe
_exptl_crystal_density_diffrn 8.24
_publ_section_title 'Contribution to the study of the bismuth-selenium system'
_publ_section_comment 'Cell and Type only determined'
loop_
_citation_id
_citation_journal_full
_citation_year
_citation_journal_volume
_citation_page_first
_citation_page_last
_citation_journal_id_ASTM
primary 'European Journal of Solid State Inorganic Chemistry' 1989 26 221 229
EJSCE5
loop_
_publ_author_name
'Gardes, B.'
'Brun, G.'
'Tedenac, J.C.'
_cell_length_a 4.179(1)
_cell_length_b 4.179(1)
_cell_length_c 23.028(9)
_cell_angle_alpha 90.
_cell_angle_beta 90.
_cell_angle_gamma 120.
_cell_volume 348.28
_cell_formula_units_Z 6
_symmetry_space_group_name_H-M 'P -3 m 1'
_symmetry_Int_Tables_number 164
loop_
_symmetry_equiv_pos_site_id
_symmetry_equiv_pos_as_xyz
1 'x-y, -y, -z'
2 '-x, -x+y, -z'
3 'y, x, -z'
4 'x-y, x, -z'
5 'y, -x+y, -z'
6 '-x, -y, -z'
7 '-x+y, y, z'
8 'x, x-y, z'
9 '-y, -x, z'
10 '-x+y, -x, z'
11 '-y, x-y, z'
12 'x, y, z'
loop_
_atom_type_symbol
_atom_type_oxidation_number
Bi2+ 2
Se2- -2
loop_
_atom_site_label
_atom_site_type_symbol
_atom_site_symmetry_multiplicity
_atom_site_Wyckoff_symbol
_atom_site_fract_x
_atom_site_fract_y
_atom_site_fract_z
_atom_site_B_iso_or_equiv
_atom_site_occupancy
_atom_site_attached_hydrogens
Bi1 Bi2+ 2 c 0 0 0.12 . 1. 0
Bi2 Bi2+ 2 d 0.3333 0.6667 0.291 . 1. 0
Bi3 Bi2+ 2 d 0.3333 0.6667 0.541 . 1. 0
Se1 Se2- 2 d 0.3333 0.6667 0.056 . 1. 0
Se2 Se2- 2 d 0.3333 0.6667 0.789 . 1. 0
Se3 Se2- 2 c 0 0 0.362 . 1. 0
#End of TTdata_617073-ICSD