
#(C) 2017 by FIZ Karlsruhe - Leibniz Institute for Information Infrastructure, and the U.S. Secretary of
#Commerce on behalf of the United States.  All rights reserved.
data_617900-ICSD
_database_code_ICSD 617900
_audit_creation_date 2012-02-01
_chemical_name_systematic 'Yttrium iron carbide (2/1/4)'
_chemical_formula_structural 'Y2 Fe C4'
_chemical_formula_sum 'C4 Fe1 Y2'
_chemical_name_structure_type Er2FeC4
_exptl_crystal_density_diffrn 5.15
_publ_section_title

;
Preparation and crystal structure of superconducting Y2 Fe C4 and isotypic
lanthanoid iron carbides
;
_publ_section_comment 'Cell and Type only determined'
loop_
_citation_id
_citation_journal_full
_citation_year
_citation_journal_volume
_citation_page_first
_citation_page_last
_citation_journal_id_ASTM
primary 'Journal of Solid State Chemistry' 1987 70 19 28 JSSCBI
loop_
_publ_author_name
'Gerss, M.H.'
'Jeitschko, W.'
'Boonk, L.'
'Nientiedt, J.'
'Grobe, J.'
'Morsen, E.'
'Leson, A.'
_cell_length_a 7.529(2)
_cell_length_b 9.565(1)
_cell_length_c 5.0406(8)
_cell_angle_alpha 90.
_cell_angle_beta 90.
_cell_angle_gamma 90.
_cell_volume 363.
_cell_formula_units_Z 4
_symmetry_space_group_name_H-M 'I b a m'
_symmetry_Int_Tables_number 72
loop_
_symmetry_equiv_pos_site_id
_symmetry_equiv_pos_as_xyz
1 '-x, y, z+1/2'
2 'x, -y, z+1/2'
3 'x, y, -z'
4 '-x, -y, -z'
5 'x, -y, -z+1/2'
6 '-x, y, -z+1/2'
7 '-x, -y, z'
8 'x, y, z'
9 '-x+1/2, y+1/2, z'
10 'x+1/2, -y+1/2, z'
11 'x+1/2, y+1/2, -z+1/2'
12 '-x+1/2, -y+1/2, -z+1/2'
13 'x+1/2, -y+1/2, -z'
14 '-x+1/2, y+1/2, -z'
15 '-x+1/2, -y+1/2, z+1/2'
16 'x+1/2, y+1/2, z+1/2'
loop_
_atom_type_symbol
_atom_type_oxidation_number
Y0+ 0
Fe0+ 0
C0+ 0
loop_
_atom_site_label
_atom_site_type_symbol
_atom_site_symmetry_multiplicity
_atom_site_Wyckoff_symbol
_atom_site_fract_x
_atom_site_fract_y
_atom_site_fract_z
_atom_site_B_iso_or_equiv
_atom_site_occupancy
_atom_site_attached_hydrogens
Y1 Y0+ 8 j 0.156 0.354 0 . 1. 0
Fe1 Fe0+ 4 a 0 0 0.25 . 1. 0
C1 C0+ 8 j 0.342 0.131 0 . 1. 0
C2 C0+ 8 j 0.177 0.078 0 . 1. 0
#End of TTdata_617900-ICSD