
#(C) 2017 by FIZ Karlsruhe - Leibniz Institute for Information Infrastructure, and the U.S. Secretary of
#Commerce on behalf of the United States.  All rights reserved.
data_618188-ICSD
_database_code_ICSD 618188
_audit_creation_date 2013-02-01
_chemical_name_systematic 'Lanthanum tin carbide (5/3/1)'
_chemical_formula_structural 'La5 Sn3 C'
_chemical_formula_sum 'C1 La5 Sn3'
_chemical_name_structure_type Cr5BSi3
_exptl_crystal_density_diffrn 6.62
_publ_section_title

;
Impurity stabilization of phases with the manganese silicide (Mn5 Si3) - type
structure: questions regarding lanthanum-tin (La5 Sn3) and zirconium silicide
(Zr5 Si3)
;
_publ_section_comment 'Cell and Type only determined'
loop_
_citation_id
_citation_journal_full
_citation_year
_citation_journal_volume
_citation_page_first
_citation_page_last
_citation_journal_id_ASTM
primary 'Chemistry of Materials' 1990 2 546 550 CMATEX
loop_
_publ_author_name
'Kwon Young-Uk'
'Rzeznik, M.A.'
'Guloy, A.'
'Corbett, J.D.'
_cell_length_a 9.406(2)
_cell_length_b 9.406(2)
_cell_length_c 6.954(2)
_cell_angle_alpha 90.
_cell_angle_beta 90.
_cell_angle_gamma 120.
_cell_volume 532.81
_cell_formula_units_Z 2
_symmetry_space_group_name_H-M 'P 63/m c m'
_symmetry_Int_Tables_number 193
loop_
_symmetry_equiv_pos_site_id
_symmetry_equiv_pos_as_xyz
1 '-x, -x+y, -z+1/2'
2 'x-y, -y, -z+1/2'
3 'y, x, -z+1/2'
4 '-x+y, -x, -z+1/2'
5 '-y, x-y, -z+1/2'
6 'x, y, -z+1/2'
7 'x, x-y, z+1/2'
8 '-x+y, y, z+1/2'
9 '-y, -x, z+1/2'
10 'x-y, x, z+1/2'
11 'y, -x+y, z+1/2'
12 '-x, -y, z+1/2'
13 'x, x-y, -z'
14 '-x+y, y, -z'
15 '-y, -x, -z'
16 'x-y, x, -z'
17 'y, -x+y, -z'
18 '-x, -y, -z'
19 '-x, -x+y, z'
20 'x-y, -y, z'
21 'y, x, z'
22 '-x+y, -x, z'
23 '-y, x-y, z'
24 'x, y, z'
loop_
_atom_type_symbol
_atom_type_oxidation_number
La0+ 0
Sn0+ 0
C0+ 0
loop_
_atom_site_label
_atom_site_type_symbol
_atom_site_symmetry_multiplicity
_atom_site_Wyckoff_symbol
_atom_site_fract_x
_atom_site_fract_y
_atom_site_fract_z
_atom_site_B_iso_or_equiv
_atom_site_occupancy
_atom_site_attached_hydrogens
La1 La0+ 4 d 0.3333 0.6667 0 . 1. 0
La2 La0+ 6 g 0.26 0 0.25 . 1. 0
Sn1 Sn0+ 6 g 0.62 0 0.25 . 1. 0
C1 C0+ 2 b 0 0 0 . 1. 0
#End of TTdata_618188-ICSD