
#(C) 2017 by FIZ Karlsruhe - Leibniz Institute for Information Infrastructure, and the U.S. Secretary of
#Commerce on behalf of the United States.  All rights reserved.
data_618734-ICSD
_database_code_ICSD 618734
_audit_creation_date 2012-02-01
_chemical_name_systematic 'Yttrium rhodium carbide (8/5/12)'
_chemical_formula_structural 'Y8 Rh5 C12'
_chemical_formula_sum 'C12 Rh5 Y8'
_chemical_name_structure_type Dy8Rh5C12
_exptl_crystal_density_diffrn 6.25
_publ_section_title

;
Crystal structure and properties of the rare-earth-metal rhodium carbides R8
Rh5 C10 (R = Y, Gd-Tm)
;
_publ_section_comment 'Cell and Type only determined'
loop_
_citation_id
_citation_journal_full
_citation_year
_citation_journal_volume
_citation_page_first
_citation_page_last
_citation_journal_id_ASTM
primary 'Inorganic Chemistry' 1989 28 934 938 INOCAJ
loop_
_publ_author_name
'Hoffmann, R.D.'
'Jeitschko, W.'
'Reehuis, M.'
'Lee, S.'
_cell_length_a 27.830(3)
_cell_length_b 3.5351(4)
_cell_length_c 7.3667(9)
_cell_angle_alpha 90.
_cell_angle_beta 93.74(1)
_cell_angle_gamma 90.
_cell_volume 723.21
_cell_formula_units_Z 2
_symmetry_space_group_name_H-M 'C 1 2/m 1'
_symmetry_Int_Tables_number 12
loop_
_symmetry_equiv_pos_site_id
_symmetry_equiv_pos_as_xyz
1 '-x, y, -z'
2 '-x, -y, -z'
3 'x, -y, z'
4 'x, y, z'
5 '-x+1/2, y+1/2, -z'
6 '-x+1/2, -y+1/2, -z'
7 'x+1/2, -y+1/2, z'
8 'x+1/2, y+1/2, z'
loop_
_atom_type_symbol
_atom_type_oxidation_number
Y0+ 0
Rh0+ 0
C0+ 0
loop_
_atom_site_label
_atom_site_type_symbol
_atom_site_symmetry_multiplicity
_atom_site_Wyckoff_symbol
_atom_site_fract_x
_atom_site_fract_y
_atom_site_fract_z
_atom_site_B_iso_or_equiv
_atom_site_occupancy
_atom_site_attached_hydrogens
Y1 Y0+ 4 i 0.294 0 0.884 . 1. 0
Y2 Y0+ 4 i 0.3 0 0.391 . 1. 0
Y3 Y0+ 4 i 0.412 0 0.171 . 1. 0
Y4 Y0+ 4 i 0.453 0 0.702 . 1. 0
Rh1 Rh0+ 2 a 0 0 0 . 1. 0
Rh2 Rh0+ 4 i 0.111 0 0.498 . 1. 0
Rh3 Rh0+ 4 i 0.116 0 0.128 . 1. 0
C1 C0+ 4 i 0.023 0 0.755 . 1. 0
C2 C0+ 4 i 0.046 0 0.612 . 1. 0
C3 C0+ 4 i 0.169 0 0.347 . 1. 0
C4 C0+ 4 i 0.217 0 0.363 . 1. 0
C5 C0+ 4 i 0.159 0 0.87 . 1. 0
C6 C0+ 4 i 0.207 0 0.868 . 1. 0
#End of TTdata_618734-ICSD