
#(C) 2017 by FIZ Karlsruhe - Leibniz Institute for Information Infrastructure, and the U.S. Secretary of
#Commerce on behalf of the United States.  All rights reserved.
data_619103-ICSD
_database_code_ICSD 619103
_audit_creation_date 2012-02-01
_chemical_name_systematic 'Yttrium tungsten carbide (1/1/2)'
_chemical_formula_structural 'Y W C2'
_chemical_formula_sum 'C2 W1 Y1'
_chemical_name_structure_type MoUC2
_exptl_crystal_density_diffrn 9.57
_publ_section_title
'Ternary carbides with Ho2 Cr2 C3 - and U Mo C2 - type structure'
_publ_section_comment 'Cell and Type only determined'
loop_
_citation_id
_citation_journal_full
_citation_year
_citation_journal_volume
_citation_page_first
_citation_page_last
_citation_journal_id_ASTM
primary 'Zeitschrift fuer Metallkunde' 1986 77 788 793 ZEMTAE
loop_
_publ_author_name
'Jeitschko, W.'
'Behrens, R.K.'
_cell_length_a 5.667(2)
_cell_length_b 3.3620(7)
_cell_length_c 10.812(4)
_cell_angle_alpha 90.
_cell_angle_beta 90.
_cell_angle_gamma 90.
_cell_volume 206.
_cell_formula_units_Z 4
_symmetry_space_group_name_H-M 'P n m a'
_symmetry_Int_Tables_number 62
loop_
_symmetry_equiv_pos_site_id
_symmetry_equiv_pos_as_xyz
1 'x+1/2, y, -z+1/2'
2 'x, -y+1/2, z'
3 '-x+1/2, y+1/2, z+1/2'
4 '-x, -y, -z'
5 '-x+1/2, -y, z+1/2'
6 '-x, y+1/2, -z'
7 'x+1/2, -y+1/2, -z+1/2'
8 'x, y, z'
loop_
_atom_type_symbol
_atom_type_oxidation_number
Y3+ 3
W5+ 5
C4- -4
loop_
_atom_site_label
_atom_site_type_symbol
_atom_site_symmetry_multiplicity
_atom_site_Wyckoff_symbol
_atom_site_fract_x
_atom_site_fract_y
_atom_site_fract_z
_atom_site_B_iso_or_equiv
_atom_site_occupancy
_atom_site_attached_hydrogens
Y1 Y3+ 4 c 0.082 0.25 0.148 . 1. 0
W1 W5+ 4 c 0.418 0.25 0.898 . 1. 0
C1 C4- 4 c 0.156 0.25 0.752 . 1. 0
C2 C4- 4 c 0.753 0.25 0.006 . 1. 0
#End of TTdata_619103-ICSD