
#(C) 2017 by FIZ Karlsruhe - Leibniz Institute for Information Infrastructure, and the U.S. Secretary of
#Commerce on behalf of the United States.  All rights reserved.
data_619207-ICSD
_database_code_ICSD 619207
_audit_creation_date 2012-02-01
_chemical_name_systematic 'Calcium cobalt gallide (1/2/3)'
_chemical_formula_structural 'Ca Co2 Ga3'
_chemical_formula_sum 'Ca1 Co2 Ga3'
_chemical_name_structure_type BaZn5
_exptl_crystal_density_diffrn 6.1
_publ_section_title

;
Phases with type Ba Zn5 structure in the ternary systems (Ca, La, Eu) - (Co,
Ni) - Ga
;
_publ_section_comment 'Cell and Type only determined'
loop_
_citation_id
_citation_journal_full
_citation_year
_citation_journal_volume
_citation_page_first
_citation_page_last
_citation_journal_id_ASTM
primary 'Russian Metallurgy' 1986 1986 209 212 RMLYAQ
loop_
_publ_author_name
'Sichevich, O.M.'
'Kim Sun-Gie'
'Vasilechko, L.O.'
'Grin', Yu.N.'
'Yarmolyuk, Ya.P.'
_cell_length_a 9.779(3)
_cell_length_b 7.844(4)
_cell_length_c 5.215(3)
_cell_angle_alpha 90.
_cell_angle_beta 90.
_cell_angle_gamma 90.
_cell_volume 400.02
_cell_formula_units_Z 4
_symmetry_space_group_name_H-M 'C m c m'
_symmetry_Int_Tables_number 63
loop_
_symmetry_equiv_pos_site_id
_symmetry_equiv_pos_as_xyz
1 '-x, y, -z+1/2'
2 '-x, -y, z+1/2'
3 '-x, y, z'
4 '-x, -y, -z'
5 'x, -y, z+1/2'
6 'x, y, -z+1/2'
7 'x, -y, -z'
8 'x, y, z'
9 '-x+1/2, y+1/2, -z+1/2'
10 '-x+1/2, -y+1/2, z+1/2'
11 '-x+1/2, y+1/2, z'
12 '-x+1/2, -y+1/2, -z'
13 'x+1/2, -y+1/2, z+1/2'
14 'x+1/2, y+1/2, -z+1/2'
15 'x+1/2, -y+1/2, -z'
16 'x+1/2, y+1/2, z'
loop_
_atom_type_symbol
_atom_type_oxidation_number
Ca0+ 0
Ga0+ 0
Co0+ 0
Ga0+ 0
loop_
_atom_site_label
_atom_site_type_symbol
_atom_site_symmetry_multiplicity
_atom_site_Wyckoff_symbol
_atom_site_fract_x
_atom_site_fract_y
_atom_site_fract_z
_atom_site_B_iso_or_equiv
_atom_site_occupancy
_atom_site_attached_hydrogens
Ca1 Ca0+ 4 c 0 0.671 0.25 . 1. 0
Ga1 Ga0+ 4 c 0 0.052 0.25 . 1. 0
Co1 Co0+ 8 e 0.202 0 0 . 1. 0
Ga2 Ga0+ 8 g 0.306 0.794 0.25 . 1. 0
#End of TTdata_619207-ICSD