
#(C) 2017 by FIZ Karlsruhe - Leibniz Institute for Information Infrastructure, and the U.S. Secretary of
#Commerce on behalf of the United States.  All rights reserved.
data_619403-ICSD
_database_code_ICSD 619403
_audit_creation_date 2013-02-01
_audit_update_record 2017-08-01
_chemical_name_systematic 'Calcium magnesium plumbide (1/1/1)'
_chemical_formula_structural 'Ca Mg Pb'
_chemical_formula_sum 'Ca1 Mg1 Pb1'
_chemical_name_structure_type TiNiSi-MgSrSi
_exptl_crystal_density_diffrn 5.39
_publ_section_title

;
Der Uebergang vom ''geordneten'' Anti-Pb Cl2-Gitter zum Anti-Pb F Cl-Gitter:
Ternaere Phasen A B X der Erdalkalimetalle mit Elementen der 4. Hauptgruppe (A
= Ca, Sr, Ba; B = Mg; X = Si, Ge, Sn, Pb)
;
_publ_section_comment 'Cell and Type only determined'
loop_
_citation_id
_citation_journal_full
_citation_year
_citation_journal_volume
_citation_page_first
_citation_page_last
_citation_journal_id_ASTM
primary 'Zeitschrift fuer Anorganische und Allgemeine Chemie (1950) (DE)' 1972
391 241 254 ZAACAB
loop_
_publ_author_name
'Eisenmann, Brigitte'
'Schaefer, Herbert'
'Weiss, Armin'
_cell_length_a 7.90(2)
_cell_length_b 4.77(2)
_cell_length_c 8.88(2)
_cell_angle_alpha 90.
_cell_angle_beta 90.
_cell_angle_gamma 90.
_cell_volume 334.63
_cell_formula_units_Z 4
_symmetry_space_group_name_H-M 'P n m a'
_symmetry_Int_Tables_number 62
loop_
_symmetry_equiv_pos_site_id
_symmetry_equiv_pos_as_xyz
1 'x+1/2, y, -z+1/2'
2 'x, -y+1/2, z'
3 '-x+1/2, y+1/2, z+1/2'
4 '-x, -y, -z'
5 '-x+1/2, -y, z+1/2'
6 '-x, y+1/2, -z'
7 'x+1/2, -y+1/2, -z+1/2'
8 'x, y, z'
loop_
_atom_type_symbol
_atom_type_oxidation_number
Ca0+ 0
Mg0+ 0
Pb0+ 0
loop_
_atom_site_label
_atom_site_type_symbol
_atom_site_symmetry_multiplicity
_atom_site_Wyckoff_symbol
_atom_site_fract_x
_atom_site_fract_y
_atom_site_fract_z
_atom_site_B_iso_or_equiv
_atom_site_occupancy
_atom_site_attached_hydrogens
Ca1 Ca0+ 4 c 0.52 0.25 0.68 . 1. 0
Mg1 Mg0+ 4 c 0.65 0.25 0.06 . 1. 0
Pb1 Pb0+ 4 c 0.27 0.25 0.11 . 1. 0
#End of TTdata_619403-ICSD