
#(C) 2017 by FIZ Karlsruhe - Leibniz Institute for Information Infrastructure, and the U.S. Secretary of
#Commerce on behalf of the United States.  All rights reserved.
data_619504-ICSD
_database_code_ICSD 619504
_audit_creation_date 2012-02-01
_chemical_name_systematic 'Calcium palladium (3/1)'
_chemical_formula_structural 'Ca3 Pd'
_chemical_formula_sum 'Ca3 Pd1'
_chemical_name_structure_type Cementite-Fe3C
_exptl_crystal_density_diffrn 2.94
_publ_section_title 'Phase equilibria in the Ca-Pd system'
_publ_section_comment 'Cell and Type only determined'
loop_
_citation_id
_citation_journal_full
_citation_year
_citation_journal_volume
_citation_page_first
_citation_page_last
_citation_journal_id_ASTM
primary 'Journal of the Less-Common Metals' 1982 85 307 312 JCOMAH
loop_
_publ_author_name
'Palenzona, A.'
'Manfrinetti, P.'
_cell_length_a 7.699
_cell_length_b 9.937
_cell_length_c 6.691
_cell_angle_alpha 90.
_cell_angle_beta 90.
_cell_angle_gamma 90.
_cell_volume 511.89
_cell_formula_units_Z 4
_symmetry_space_group_name_H-M 'P n m a'
_symmetry_Int_Tables_number 62
loop_
_symmetry_equiv_pos_site_id
_symmetry_equiv_pos_as_xyz
1 'x+1/2, y, -z+1/2'
2 'x, -y+1/2, z'
3 '-x+1/2, y+1/2, z+1/2'
4 '-x, -y, -z'
5 '-x+1/2, -y, z+1/2'
6 '-x, y+1/2, -z'
7 'x+1/2, -y+1/2, -z+1/2'
8 'x, y, z'
loop_
_atom_type_symbol
_atom_type_oxidation_number
Ca0+ 0
Pd0+ 0
loop_
_atom_site_label
_atom_site_type_symbol
_atom_site_symmetry_multiplicity
_atom_site_Wyckoff_symbol
_atom_site_fract_x
_atom_site_fract_y
_atom_site_fract_z
_atom_site_B_iso_or_equiv
_atom_site_occupancy
_atom_site_attached_hydrogens
Ca1 Ca0+ 8 d 0.174 0.064 0.163 . 1. 0
Ca2 Ca0+ 4 c 0.038 0.25 0.634 . 1. 0
Pd1 Pd0+ 4 c 0.379 0.25 0.448 . 1. 0
#End of TTdata_619504-ICSD