
#(C) 2017 by FIZ Karlsruhe - Leibniz Institute for Information Infrastructure.  All rights reserved.
data_62140-ICSD
_database_code_ICSD 62140
_audit_creation_date 1988-02-22
_audit_update_record 2012-08-01
_chemical_name_systematic 'Dicesium trioxoplumbate'
_chemical_formula_structural 'Cs2 Pb O3'
_chemical_formula_sum 'Cs2 O3 Pb1'
_chemical_name_structure_type CsCu2Cl3
_exptl_crystal_density_diffrn 6.46
_publ_section_title 'Ueber K2PbO3, Rb2PbO3 und Cs2PbO3'
loop_
_citation_id
_citation_journal_full
_citation_year
_citation_journal_volume
_citation_page_first
_citation_page_last
_citation_journal_id_ASTM
primary 'Zeitschrift fuer Anorganische und Allgemeine Chemie (1950) (DE)' 1987
551 151 162 ZAACAB
loop_
_publ_author_name
'Stoll, H.'
'Hoppe, R.'
_cell_length_a 11.3074(15)
_cell_length_b 7.8415(8)
_cell_length_c 6.0442(8)
_cell_angle_alpha 90.
_cell_angle_beta 90.
_cell_angle_gamma 90.
_cell_volume 535.92
_cell_formula_units_Z 4
_symmetry_space_group_name_H-M 'C m c m'
_symmetry_Int_Tables_number 63
_refine_ls_R_factor_all 0.0834
loop_
_symmetry_equiv_pos_site_id
_symmetry_equiv_pos_as_xyz
1 '-x, y, -z+1/2'
2 '-x, -y, z+1/2'
3 '-x, y, z'
4 '-x, -y, -z'
5 'x, -y, z+1/2'
6 'x, y, -z+1/2'
7 'x, -y, -z'
8 'x, y, z'
9 '-x+1/2, y+1/2, -z+1/2'
10 '-x+1/2, -y+1/2, z+1/2'
11 '-x+1/2, y+1/2, z'
12 '-x+1/2, -y+1/2, -z'
13 'x+1/2, -y+1/2, z+1/2'
14 'x+1/2, y+1/2, -z+1/2'
15 'x+1/2, -y+1/2, -z'
16 'x+1/2, y+1/2, z'
loop_
_atom_type_symbol
_atom_type_oxidation_number
Pb4+ 4
Cs1+ 1
O2- -2
loop_
_atom_site_label
_atom_site_type_symbol
_atom_site_symmetry_multiplicity
_atom_site_Wyckoff_symbol
_atom_site_fract_x
_atom_site_fract_y
_atom_site_fract_z
_atom_site_B_iso_or_equiv
_atom_site_occupancy
_atom_site_attached_hydrogens
Pb1 Pb4+ 4 c 0 0.0885(2) 0.25 . 1. 0
Cs1 Cs1+ 8 g 0.3369(2) 0.1463(2) 0.25 . 1. 0
O1 O2- 8 e 0.1232(17) 0 0 . 1. 0
O2 O2- 4 c 0 0.3499(35) 0.25 . 1. 0
loop_
_atom_site_aniso_label
_atom_site_aniso_type_symbol
_atom_site_aniso_U_11
_atom_site_aniso_U_22
_atom_site_aniso_U_33
_atom_site_aniso_U_12
_atom_site_aniso_U_13
_atom_site_aniso_U_23
Pb1 Pb4+ 0.0106(6) 0.0098(6) 0.0010(5) 0 0 0
Cs1 Cs1+ 0.0232(9) 0.0192(11) 0.0230(9) -.0047(6) 0 0
O1 O2- 0.0379(80) 0.0246(74) 0.0010(59) 0 0 -.0017(57)
O2 O2- 0.051(12) 0.0206(99) 0.0258(99) 0 0 0
#End of TTdata_62140-ICSD