
#(C) 2017 by FIZ Karlsruhe - Leibniz Institute for Information Infrastructure.  All rights reserved.
data_62157-ICSD
_database_code_ICSD 62157
_audit_creation_date 1988-02-22
_audit_update_record 2012-08-01
_chemical_name_systematic 'Barium octathiohexamolybdate'
_chemical_formula_structural 'Ba (Mo6 S8)'
_chemical_formula_sum 'Ba1 Mo6 S8'
_chemical_name_structure_type Chevrel-PbMo6S8
_exptl_crystal_density_diffrn 5.48
_publ_section_title

;
Structural phase transitions in Chevrel phases containing divalent metal
cations. I. Structure refinement of rhombohedral M Mo6 S8 (M= Eu, Sr, Ba) at
room temperature
;
loop_
_citation_id
_citation_journal_full
_citation_year
_citation_journal_volume
_citation_page_first
_citation_page_last
_citation_journal_id_ASTM
primary 'Acta Crystallographica, Section C: Crystal Structure Communications'
1987 43 1655 1659 ACSCEE
loop_
_publ_author_name
'Kubel, F.'
'Yvon, K.'
_cell_length_a 6.6507(3)
_cell_length_b 6.6507(3)
_cell_length_c 6.6507(3)
_cell_angle_alpha 88.584(6)
_cell_angle_beta 88.584(6)
_cell_angle_gamma 88.584(6)
_cell_volume 293.91
_cell_formula_units_Z 1
_symmetry_space_group_name_H-M 'R -3 R'
_symmetry_Int_Tables_number 148
_refine_ls_R_factor_all 0.019
loop_
_symmetry_equiv_pos_site_id
_symmetry_equiv_pos_as_xyz
1 '-z, -x, -y'
2 '-y, -z, -x'
3 '-x, -y, -z'
4 'z, x, y'
5 'y, z, x'
6 'x, y, z'
loop_
_atom_type_symbol
_atom_type_oxidation_number
Ba0+ 0
Mo0+ 0
S0+ 0
loop_
_atom_site_label
_atom_site_type_symbol
_atom_site_symmetry_multiplicity
_atom_site_Wyckoff_symbol
_atom_site_fract_x
_atom_site_fract_y
_atom_site_fract_z
_atom_site_B_iso_or_equiv
_atom_site_occupancy
_atom_site_attached_hydrogens
Ba1 Ba0+ 1 a 0 0 0 . 1. 0
Mo1 Mo0+ 6 f 0.23459(2) 0.41754(2) 0.56556(2) . 1. 0
S1 S0+ 6 f 0.39031(7) 0.12297(7) 0.73598(7) . 1. 0
S2 S0+ 2 c 0.2515(2) 0.2515(2) 0.2515(2) . 1. 0
loop_
_atom_site_aniso_label
_atom_site_aniso_type_symbol
_atom_site_aniso_U_11
_atom_site_aniso_U_22
_atom_site_aniso_U_33
_atom_site_aniso_U_12
_atom_site_aniso_U_13
_atom_site_aniso_U_23
Ba1 Ba0+ 0.01153(3) 0.01153(3) 0.01153(3) -.00298(3) -.00298(3) -.00298(3)
Mo1 Mo0+ 0.00645(4) 0.00570(4) 0.00603(4) -.00031(3) -.00065(3) -.00039(3)
S1 S0+ 0.0102(1) 0.0065(1) 0.0095(1) -.0014(1) 0.0005(1) 0.0009(1)
S2 S0+ 0.0113(3) 0.0113(3) 0.0113(3) -.0035(3) -.0035(3) -.0035(3)
#End of TTdata_62157-ICSD