
#(C) 2017 by FIZ Karlsruhe - Leibniz Institute for Information Infrastructure.  All rights reserved.
data_62159-ICSD
_database_code_ICSD 62159
_audit_creation_date 1988-02-22
_chemical_name_systematic 'Chromium orthophosphate - beta'
_chemical_formula_structural 'Cr P O4'
_chemical_formula_sum 'Cr1 O4 P1'
_chemical_name_structure_type CrVO4
_exptl_crystal_density_diffrn 3.98
_cell_measurement_temperature 5.
_publ_section_title
'The spiral magnetic structure of beta-chromium(III) orthophosphate'
loop_
_citation_id
_citation_journal_full
_citation_year
_citation_journal_volume
_citation_page_first
_citation_page_last
_citation_journal_id_ASTM
primary 'Journal of Solid State Chemistry' 1985 57 357 361 JSSCBI
loop_
_publ_author_name
'Attfield, J.P.'
'Battle, P.D.'
'Cheetham, A.K.'
_cell_length_a 5.1710(4)
_cell_length_b 7.7573(2)
_cell_length_c 6.1183(2)
_cell_angle_alpha 90.
_cell_angle_beta 90.
_cell_angle_gamma 90.
_cell_volume 245.42
_cell_formula_units_Z 4
_symmetry_space_group_name_H-M 'C m c m'
_symmetry_Int_Tables_number 63
_refine_ls_R_factor_all 0.132
loop_
_symmetry_equiv_pos_site_id
_symmetry_equiv_pos_as_xyz
1 '-x, y, -z+1/2'
2 '-x, -y, z+1/2'
3 '-x, y, z'
4 '-x, -y, -z'
5 'x, -y, z+1/2'
6 'x, y, -z+1/2'
7 'x, -y, -z'
8 'x, y, z'
9 '-x+1/2, y+1/2, -z+1/2'
10 '-x+1/2, -y+1/2, z+1/2'
11 '-x+1/2, y+1/2, z'
12 '-x+1/2, -y+1/2, -z'
13 'x+1/2, -y+1/2, z+1/2'
14 'x+1/2, y+1/2, -z+1/2'
15 'x+1/2, -y+1/2, -z'
16 'x+1/2, y+1/2, z'
loop_
_atom_type_symbol
_atom_type_oxidation_number
Cr3+ 3
P5+ 5
O2- -2
loop_
_atom_site_label
_atom_site_type_symbol
_atom_site_symmetry_multiplicity
_atom_site_Wyckoff_symbol
_atom_site_fract_x
_atom_site_fract_y
_atom_site_fract_z
_atom_site_B_iso_or_equiv
_atom_site_occupancy
_atom_site_attached_hydrogens
Cr1 Cr3+ 4 a 0 0 0 0.22(2) 1. 0
P1 P5+ 4 c 0 0.3503(3) 0.25 0.22(2) 1. 0
O1 O2- 8 f 0 0.2459(2) 0.0429(3) 0.22(2) 1. 0
O2 O2- 8 g 0.2462(4) 0.4706(2) 0.25 0.22(2) 1. 0
#End of TTdata_62159-ICSD