
#(C) 2017 by FIZ Karlsruhe - Leibniz Institute for Information Infrastructure.  All rights reserved.
data_62219-ICSD
_database_code_ICSD 62219
_audit_creation_date 1988-07-15
_chemical_name_systematic 'Calcium molybdate'
_chemical_formula_structural 'Ca Mo O4'
_chemical_formula_sum 'Ca1 Mo1 O4'
_chemical_name_structure_type Scheelite-CaWO4
_exptl_crystal_density_diffrn 4.26
_publ_section_title

;
Neutron Powder Diffraction Profile Refinement Studies on CaMoO4. A Comparison
with Single-Crystal Data
;
loop_
_citation_id
_citation_journal_full
_citation_year
_citation_journal_volume
_citation_page_first
_citation_page_last
_citation_journal_id_ASTM
primary 'Acta Chemica Scandinavica, Series A: (28,1974-)' 1987 41 358 360 ACAPCT
loop_
_publ_author_name
'Wandahl, G.'
'Christensen, A.N.'
_cell_length_a 5.2235(1)
_cell_length_b 5.2235(1)
_cell_length_c 11.4298(4)
_cell_angle_alpha 90.
_cell_angle_beta 90.
_cell_angle_gamma 90.
_cell_volume 311.86
_cell_formula_units_Z 4
_symmetry_space_group_name_H-M 'I 41/a S'
_symmetry_Int_Tables_number 88
_refine_ls_R_factor_all 0.0714
loop_
_symmetry_equiv_pos_site_id
_symmetry_equiv_pos_as_xyz
1 'y, -x+1/2, z+1/4'
2 '-y, x+1/2, z+1/4'
3 'y, -x, -z'
4 '-y, x, -z'
5 '-x, -y+1/2, -z+1/4'
6 'x, y+1/2, -z+1/4'
7 '-x, -y, z'
8 'x, y, z'
9 'y+1/2, -x, z+3/4'
10 '-y+1/2, x, z+3/4'
11 'y+1/2, -x+1/2, -z+1/2'
12 '-y+1/2, x+1/2, -z+1/2'
13 '-x+1/2, -y, -z+3/4'
14 'x+1/2, y, -z+3/4'
15 '-x+1/2, -y+1/2, z+1/2'
16 'x+1/2, y+1/2, z+1/2'
loop_
_atom_type_symbol
_atom_type_oxidation_number
Ca2+ 2
Mo6+ 6
O2- -2
loop_
_atom_site_label
_atom_site_type_symbol
_atom_site_symmetry_multiplicity
_atom_site_Wyckoff_symbol
_atom_site_fract_x
_atom_site_fract_y
_atom_site_fract_z
_atom_site_B_iso_or_equiv
_atom_site_occupancy
_atom_site_attached_hydrogens
Ca1 Ca2+ 4 b 0 0 0.5 0.819(67) 1. 0
Mo1 Mo6+ 4 a 0 0 0 0.496(47) 1. 0
O1 O2- 16 f 0.2436(4) 0.1490(3) 0.0842(2) 0.778(27) 1. 0
#End of TTdata_62219-ICSD