
#(C) 2017 by FIZ Karlsruhe - Leibniz Institute for Information Infrastructure, and the U.S. Secretary of
#Commerce on behalf of the United States.  All rights reserved.
data_623484-ICSD
_database_code_ICSD 623484
_audit_creation_date 2013-02-01
_chemical_name_systematic 'Manganese cobalt germanide (1/1/1)'
_chemical_formula_structural 'Mn Co Ge'
_chemical_formula_sum 'Co1 Ge1 Mn1'
_chemical_name_structure_type TiNiSi-MgSrSi
_exptl_crystal_density_diffrn 7.72
_publ_section_title

;
Diffusion less orthorhombic to hexagonal transitions in ternary silicides and
germanides
;
_publ_section_comment 'Cell and Type only determined'
loop_
_citation_id
_citation_journal_full
_citation_year
_citation_journal_volume
_citation_page_first
_citation_page_last
_citation_journal_id_ASTM
primary 'Inorganic Chemistry' 1975 14 1117 1120 INOCAJ
loop_
_publ_author_name
'Johnson, V.'
_cell_length_a 5.9572(8)
_cell_length_b 3.8168(8)
_cell_length_c 7.0542(11)
_cell_angle_alpha 90.
_cell_angle_beta 90.
_cell_angle_gamma 90.
_cell_volume 160.39
_cell_formula_units_Z 4
_symmetry_space_group_name_H-M 'P n m a'
_symmetry_Int_Tables_number 62
loop_
_symmetry_equiv_pos_site_id
_symmetry_equiv_pos_as_xyz
1 'x+1/2, y, -z+1/2'
2 'x, -y+1/2, z'
3 '-x+1/2, y+1/2, z+1/2'
4 '-x, -y, -z'
5 '-x+1/2, -y, z+1/2'
6 '-x, y+1/2, -z'
7 'x+1/2, -y+1/2, -z+1/2'
8 'x, y, z'
loop_
_atom_type_symbol
_atom_type_oxidation_number
Co0+ 0
Mn0+ 0
Ge0+ 0
loop_
_atom_site_label
_atom_site_type_symbol
_atom_site_symmetry_multiplicity
_atom_site_Wyckoff_symbol
_atom_site_fract_x
_atom_site_fract_y
_atom_site_fract_z
_atom_site_B_iso_or_equiv
_atom_site_occupancy
_atom_site_attached_hydrogens
Co1 Co0+ 4 c 0.137 0.25 0.553 . 1. 0
Mn1 Mn0+ 4 c 0.007 0.25 0.181 . 1. 0
Ge1 Ge0+ 4 c 0.749 0.25 0.618 . 1. 0
#End of TTdata_623484-ICSD