
#(C) 2017 by FIZ Karlsruhe - Leibniz Institute for Information Infrastructure.  All rights reserved.
data_6235-ICSD
_database_code_ICSD 6235
_audit_creation_date 1980-01-01
_audit_update_record 2008-02-01
_chemical_name_systematic 'Cobalt sulfate(VI) hydrate'
_chemical_formula_structural 'Co (S O4) (H2 O)'
_chemical_formula_sum 'H2 Co1 O5 S1'
_chemical_name_structure_type MgSO4H2O
_exptl_crystal_density_diffrn 3.27
_publ_section_title

;
Ueber die Bindung der Wassermolekel in den Verbindungen Me(III) S O4 H2 O und
M(II) Se O4 H2 O. I. Strukturuntersuchungen
;
loop_
_citation_id
_citation_journal_full
_citation_year
_citation_journal_volume
_citation_page_first
_citation_page_last
_citation_journal_id_ASTM
primary 'Helvetica Chimica Acta' 1965 48 590 600 HCACAV
loop_
_publ_author_name
'Oswald, H.R.'
_cell_length_a 6.95(8)
_cell_length_b 7.57
_cell_length_c 7.62(1)
_cell_angle_alpha 90.
_cell_angle_beta 118.68
_cell_angle_gamma 90.
_cell_volume 351.71
_cell_formula_units_Z 4
_symmetry_space_group_name_H-M 'C 1 2/c 1'
_symmetry_Int_Tables_number 15
_refine_ls_R_factor_all 0.098
loop_
_symmetry_equiv_pos_site_id
_symmetry_equiv_pos_as_xyz
1 'x, -y, z+1/2'
2 '-x, -y, -z'
3 '-x, y, -z+1/2'
4 'x, y, z'
5 'x+1/2, -y+1/2, z+1/2'
6 '-x+1/2, -y+1/2, -z'
7 '-x+1/2, y+1/2, -z+1/2'
8 'x+1/2, y+1/2, z'
loop_
_atom_type_symbol
_atom_type_oxidation_number
Co2+ 2
S6+ 6
O2- -2
H1+ 1
loop_
_atom_site_label
_atom_site_type_symbol
_atom_site_symmetry_multiplicity
_atom_site_Wyckoff_symbol
_atom_site_fract_x
_atom_site_fract_y
_atom_site_fract_z
_atom_site_B_iso_or_equiv
_atom_site_occupancy
_atom_site_attached_hydrogens
Co1 Co2+ 4 b 0 0.5 0 1.1 1. 0
S1 S6+ 4 e 0 0.1509(12) 0.25 0.78 1. 0
O1 O2- 4 e 0 0.6329(26) 0.25 1.28 1. 0
O2 O2- 8 f 0.1039(23) 0.2742(17) 0.1587(19) 0.97 1. 0
O3 O2- 8 f 0.1755(20) 0.0384(16) 0.4076(18) 1.16 1. 0
#End of TTdata_6235-ICSD