
#(C) 2017 by FIZ Karlsruhe - Leibniz Institute for Information Infrastructure.  All rights reserved.
data_62419-ICSD
_database_code_ICSD 62419
_audit_creation_date 1988-12-19
_audit_update_record 2004-10-01
_chemical_name_systematic
'Rubidium dicopper hydroxide bis(selenate(VI)) hydrate'
_chemical_formula_structural 'Rb Cu2 (O H) (Se O4)2 (H2 O)'
_chemical_formula_sum 'H3 Cu2 O10 Rb1 Se2'
_chemical_name_structure_type NaCu2OH(SO4)2H2O
_exptl_crystal_density_diffrn 4.15
_publ_section_title

;
The crystal structure of the natrochalcite-type compounds (Me+) Cu2 (O H) (Z
O4)2 H2 O (Me+= Na, K, Rb; Z= S, Se), with special reference to the hydrogen
bonds
;
loop_
_citation_id
_citation_journal_full
_citation_year
_citation_journal_volume
_citation_page_first
_citation_page_last
_citation_journal_id_ASTM
primary 'Zeitschrift fuer Kristallographie (1979-2010)' 1987 179 431 442 ZEKRDZ
loop_
_publ_author_name
'Giester, G.'
'Zemann, J.'
_cell_length_a 9.246(1)
_cell_length_b 6.483(1)
_cell_length_c 7.940(1)
_cell_angle_alpha 90.
_cell_angle_beta 116.11(1)
_cell_angle_gamma 90.
_cell_volume 427.37
_cell_formula_units_Z 2
_symmetry_space_group_name_H-M 'C 1 2/m 1'
_symmetry_Int_Tables_number 12
_refine_ls_R_factor_all 0.041
loop_
_symmetry_equiv_pos_site_id
_symmetry_equiv_pos_as_xyz
1 '-x, y, -z'
2 '-x, -y, -z'
3 'x, -y, z'
4 'x, y, z'
5 '-x+1/2, y+1/2, -z'
6 '-x+1/2, -y+1/2, -z'
7 'x+1/2, -y+1/2, z'
8 'x+1/2, y+1/2, z'
loop_
_atom_type_symbol
_atom_type_oxidation_number
Rb1+ 1
Cu2+ 2
Se6+ 6
O2- -2
H1+ 1
loop_
_atom_site_label
_atom_site_type_symbol
_atom_site_symmetry_multiplicity
_atom_site_Wyckoff_symbol
_atom_site_fract_x
_atom_site_fract_y
_atom_site_fract_z
_atom_site_B_iso_or_equiv
_atom_site_occupancy
_atom_site_attached_hydrogens
Rb1 Rb1+ 2 d 0 0.5 0.5 . 1. 0
Cu1 Cu2+ 4 e 0.25 0.25 0 . 1. 0
Se1 Se6+ 4 i 0.07206(4) 0 0.27885(4) . 1. 0
O1 O2- 4 i 0.1880(3) 0 0.1697(3) . 1. 0
O2 O2- 4 i 0.1797(3) 0 0.5031(3) . 1. 0
O3 O2- 8 j -.0415(2) 0.2094(3) 0.2156(2) . 1. 0
O4 O2- 4 i 0.1557(3) 0.5 0.0719(3) . 1. 0
loop_
_atom_site_aniso_label
_atom_site_aniso_type_symbol
_atom_site_aniso_U_11
_atom_site_aniso_U_22
_atom_site_aniso_U_33
_atom_site_aniso_U_12
_atom_site_aniso_U_13
_atom_site_aniso_U_23
Rb1 Rb1+ 0.0147(2) 0.0208(2) 0.0117(1) 0 0.0028(1) 0
Cu1 Cu2+ 0.0099(1) 0.0111(2) 0.0139(1) 0.0000(1) 0.0031(1) -.0009(1)
Se1 Se6+ 0.0093(1) 0.0105(1) 0.0097(1) 0 0.0025(1) 0
O1 O2- 0.0180(11) 0.0173(11) 0.0194(9) 0 0.0127(9) 0
O2 O2- 0.0173(11) 0.0314(15) 0.0087(7) 0 0.0003(7) 0
O3 O2- 0.0134(6) 0.0117(7) 0.0185(6) 0.0017(6) 0.0027(5) -.0019(6)
O4 O2- 0.0156(10) 0.0132(10) 0.0176(9) 0 0.0075(8) 0
#End of TTdata_62419-ICSD