
#(C) 2017 by FIZ Karlsruhe - Leibniz Institute for Information Infrastructure, and the U.S. Secretary of
#Commerce on behalf of the United States.  All rights reserved.
data_625129-ICSD
_database_code_ICSD 625129
_audit_creation_date 2010-02-01
_chemical_name_systematic 'Cobalt yttrium silicide (1/1/2)'
_chemical_formula_structural 'Co Y Si2'
_chemical_formula_sum 'Co1 Si2 Y1'
_chemical_name_structure_type BaCuSn2
_exptl_crystal_density_diffrn 5.22
_publ_section_title 'Magnetic properties of R Co Si2 compounds (R= rare earth)'
_publ_section_comment 'Cell and Type only determined'
loop_
_citation_id
_citation_journal_full
_citation_year
_citation_journal_volume
_citation_page_first
_citation_page_last
_citation_journal_id_ASTM
primary 'Journal of Magnetism and Magnetic Materials' 1982 30 33 36 JMMMDC
loop_
_publ_author_name
'Pelizzone, M.'
'Braun, H.F.'
'Muller, J.'
_cell_length_a 4.025(2)
_cell_length_b 16.280(7)
_cell_length_c 3.963(3)
_cell_angle_alpha 90.
_cell_angle_beta 90.
_cell_angle_gamma 90.
_cell_volume 259.68
_cell_formula_units_Z 4
_symmetry_space_group_name_H-M 'C m c m'
_symmetry_Int_Tables_number 63
loop_
_symmetry_equiv_pos_site_id
_symmetry_equiv_pos_as_xyz
1 '-x, y, -z+1/2'
2 '-x, -y, z+1/2'
3 '-x, y, z'
4 '-x, -y, -z'
5 'x, -y, z+1/2'
6 'x, y, -z+1/2'
7 'x, -y, -z'
8 'x, y, z'
9 '-x+1/2, y+1/2, -z+1/2'
10 '-x+1/2, -y+1/2, z+1/2'
11 '-x+1/2, y+1/2, z'
12 '-x+1/2, -y+1/2, -z'
13 'x+1/2, -y+1/2, z+1/2'
14 'x+1/2, y+1/2, -z+1/2'
15 'x+1/2, -y+1/2, -z'
16 'x+1/2, y+1/2, z'
loop_
_atom_type_symbol
_atom_type_oxidation_number
Y0+ 0
Co0+ 0
Si0+ 0
loop_
_atom_site_label
_atom_site_type_symbol
_atom_site_symmetry_multiplicity
_atom_site_Wyckoff_symbol
_atom_site_fract_x
_atom_site_fract_y
_atom_site_fract_z
_atom_site_B_iso_or_equiv
_atom_site_occupancy
_atom_site_attached_hydrogens
Y1 Y0+ 4 c 0 0.105 .25 . 1. 0
Co1 Co0+ 4 c 0 0.325 .25 . 1. 0
Si1 Si0+ 4 c 0 0.448 .25 . 1. 0
Si2 Si0+ 4 c 0 0.75 .25 . 1. 0
#End of TTdata_625129-ICSD