
#(C) 2017 by FIZ Karlsruhe - Leibniz Institute for Information Infrastructure.  All rights reserved.
data_62520-ICSD
_database_code_ICSD 62520
_audit_creation_date 1988-02-22
_chemical_name_systematic 'Barium platinum phosphide (1/2/3)'
_chemical_formula_structural 'Ba Pt2 P3'
_chemical_formula_sum 'Ba1 P3 Pt2'
_exptl_crystal_density_diffrn 7.71
_publ_section_title

;
Ternaere Varianten des Pyrit-Typs: Darstellung und Struktur von SrPt4P6,
SrPt4As6, BaPt4As6 und BaPt2P3
;
loop_
_citation_id
_citation_journal_full
_citation_year
_citation_journal_volume
_citation_page_first
_citation_page_last
_citation_journal_id_ASTM
primary 'Zeitschrift fuer Naturforschung, B: Chemical Sciences' 1987 42 507 513
ZNBSEN
loop_
_publ_author_name
'Wenski, G.'
'Mewis, A.'
_cell_length_a 8.352(1)
_cell_length_b 5.776(1)
_cell_length_c 11.574(1)
_cell_angle_alpha 90.
_cell_angle_beta 106.73(2)
_cell_angle_gamma 90.
_cell_volume 534.71
_cell_formula_units_Z 4
_symmetry_space_group_name_H-M 'P 1 21/c 1'
_symmetry_Int_Tables_number 14
_refine_ls_R_factor_all 0.043
loop_
_symmetry_equiv_pos_site_id
_symmetry_equiv_pos_as_xyz
1 'x, -y+1/2, z+1/2'
2 '-x, -y, -z'
3 '-x, y+1/2, -z+1/2'
4 'x, y, z'
loop_
_atom_type_symbol
_atom_type_oxidation_number
Ba2+ 2
Pt2+ 2
P2- -2
loop_
_atom_site_label
_atom_site_type_symbol
_atom_site_symmetry_multiplicity
_atom_site_Wyckoff_symbol
_atom_site_fract_x
_atom_site_fract_y
_atom_site_fract_z
_atom_site_B_iso_or_equiv
_atom_site_occupancy
_atom_site_attached_hydrogens
Ba1 Ba2+ 4 e 0.7606(2) 0.5861(2) 0.1477(1) . 1. 0
Pt1 Pt2+ 2 a 0 0 0 . 1. 0
Pt2 Pt2+ 2 b 0.5 0 0 . 1. 0
Pt3 Pt2+ 4 e 0.3381(1) 0.5175(1) 0.1612(1) . 1. 0
P1 P2- 4 e 0.4538(6) 0.1530(7) 0.1751(4) . 1. 0
P2 P2- 4 e 0.0694(6) 0.3788(8) 0.0712(4) . 1. 0
P3 P2- 4 e 0.2761(6) 0.8842(8) 0.0828(4) . 1. 0
loop_
_atom_site_aniso_label
_atom_site_aniso_type_symbol
_atom_site_aniso_U_11
_atom_site_aniso_U_22
_atom_site_aniso_U_33
_atom_site_aniso_U_12
_atom_site_aniso_U_13
_atom_site_aniso_U_23
Ba1 Ba2+ 0.0164(5) 0.0323(6) 0.0136(5) 0.0072(5) 0.0081(4) 0.0015(5)
Pt1 Pt2+ 0.0055(4) 0.0042(4) 0.0085(4) -.0001(5) -.0008(3) 0.0013(4)
Pt2 Pt2+ 0.0105(3) 0.0117(4) 0.0083(4) 0.0033(5) 0.0038(3) 0.0011(5)
Pt3 Pt2+ 0.0056(2) 0.0051(3) 0.0064(3) -.0001(3) 0.0000(2) -.0002(3)
P1 P2- 0.0063(18) 0.0065(18) 0.0074(19) 0.0005(15) 0.0005(15) -.0016(14)
P2 P2- 0.0056(19) 0.0084(20) 0.0101(21) 0.0003(16) 0.0036(16) -.0010(16)
P3 P2- 0.0062(20) 0.0088(19) 0.0068(19) -.0009(16) -.0006(16) -.0001(15)
#End of TTdata_62520-ICSD