
#(C) 2017 by FIZ Karlsruhe - Leibniz Institute for Information Infrastructure.  All rights reserved.
data_62553-ICSD
_database_code_ICSD 62553
_audit_creation_date 1988-02-22
_audit_update_record 2009-08-01
_chemical_name_systematic 'Calcium tetracopper(I) phosphide'
_chemical_formula_structural 'Ca Cu4 P2'
_chemical_formula_sum 'Ca1 Cu4 P2'
_chemical_name_structure_type Fe4Si2Zr
_exptl_crystal_density_diffrn 5.81
_publ_section_title

;
Eine mit Tetraederketten aufgefuellte Rutilstruktur: Die Verbindung Ca Cu4 P2
= Ca2 P2 (Cu4)
;
loop_
_citation_id
_citation_journal_full
_citation_year
_citation_journal_volume
_citation_page_first
_citation_page_last
_citation_journal_id_ASTM
primary 'Zeitschrift fuer Anorganische und Allgemeine Chemie (1950) (DE)' 1987
545 43 46 ZAACAB
loop_
_publ_author_name
'Mewis, A.'
_cell_length_a 7.290(2)
_cell_length_b 7.290(2)
_cell_length_c 3.831(1)
_cell_angle_alpha 90.
_cell_angle_beta 90.
_cell_angle_gamma 90.
_cell_volume 203.6
_cell_formula_units_Z 2
_symmetry_space_group_name_H-M 'P 42/m n m'
_symmetry_Int_Tables_number 136
_refine_ls_R_factor_all 0.043
loop_
_symmetry_equiv_pos_site_id
_symmetry_equiv_pos_as_xyz
1 '-y+1/2, x+1/2, -z+1/2'
2 'y+1/2, -x+1/2, -z+1/2'
3 'y, x, -z'
4 '-y, -x, -z'
5 'y+1/2, -x+1/2, z+1/2'
6 '-y+1/2, x+1/2, z+1/2'
7 '-y, -x, z'
8 'y, x, z'
9 'x+1/2, -y+1/2, -z+1/2'
10 '-x+1/2, y+1/2, -z+1/2'
11 'x, y, -z'
12 '-x, -y, -z'
13 '-x+1/2, y+1/2, z+1/2'
14 'x+1/2, -y+1/2, z+1/2'
15 '-x, -y, z'
16 'x, y, z'
loop_
_atom_type_symbol
_atom_type_oxidation_number
Ca2+ 2
Cu1+ 1
P3- -3
loop_
_atom_site_label
_atom_site_type_symbol
_atom_site_symmetry_multiplicity
_atom_site_Wyckoff_symbol
_atom_site_fract_x
_atom_site_fract_y
_atom_site_fract_z
_atom_site_B_iso_or_equiv
_atom_site_occupancy
_atom_site_attached_hydrogens
Ca1 Ca2+ 2 a 0 0 0 . 1. 0
Cu1 Cu1+ 8 i 0.5855(1) 0.1643(1) 0 . 1. 0
P1 P3- 4 f 0.2809(2) 0.2809(2) 0 . 1. 0
loop_
_atom_site_aniso_label
_atom_site_aniso_type_symbol
_atom_site_aniso_U_11
_atom_site_aniso_U_22
_atom_site_aniso_U_33
_atom_site_aniso_U_12
_atom_site_aniso_U_13
_atom_site_aniso_U_23
Ca1 Ca2+ 0.0048(6) 0.0048 0.0061(9) -.0010(7) 0 0
Cu1 Cu1+ 0.0070(3) 0.0095(3) 0.0061(3) -.0009(2) 0 0
P1 P3- 0.0055(5) 0.0055 0.0041(8) 0.0000(6) 0 0
#End of TTdata_62553-ICSD