
#(C) 2017 by FIZ Karlsruhe - Leibniz Institute for Information Infrastructure, and the U.S. Secretary of
#Commerce on behalf of the United States.  All rights reserved.
data_626157-ICSD
_database_code_ICSD 626157
_audit_creation_date 2013-02-01
_chemical_name_systematic 'Hafnium chromium silicide (1/1/1)'
_chemical_formula_structural 'Hf Cr Si'
_chemical_formula_sum 'Cr1 Hf1 Si1'
_chemical_name_structure_type TiNiSi-MgSrSi
_exptl_crystal_density_diffrn 9.33
_publ_section_title

;
New representatives of the Ti Ni Si (E) structure type in the Hf (Zr) - Mo
(Cr, Mn) - Si systems
;
_publ_section_comment 'Cell and Type only determined'
loop_
_citation_id
_citation_journal_full
_citation_year
_citation_journal_volume
_citation_page_first
_citation_page_last
_citation_journal_id_ASTM
primary

;
Dopovidi Akademii Nauk Ukrains'koi RSR, Seriya A: Fiziko-Tekhnichni ta
Matematichni Nauki
; 1970 1970 558 560 DUKABM
loop_
_publ_author_name
'Yarmolyuk, Ya.P.'
'Shurin, A.R.'
'Gladyshevskii, E.I.'
_cell_length_a 6.694
_cell_length_b 3.543
_cell_length_c 7.758
_cell_angle_alpha 90.
_cell_angle_beta 90.
_cell_angle_gamma 90.
_cell_volume 184.
_cell_formula_units_Z 4
_symmetry_space_group_name_H-M 'P n m a'
_symmetry_Int_Tables_number 62
loop_
_symmetry_equiv_pos_site_id
_symmetry_equiv_pos_as_xyz
1 'x+1/2, y, -z+1/2'
2 'x, -y+1/2, z'
3 '-x+1/2, y+1/2, z+1/2'
4 '-x, -y, -z'
5 '-x+1/2, -y, z+1/2'
6 '-x, y+1/2, -z'
7 'x+1/2, -y+1/2, -z+1/2'
8 'x, y, z'
loop_
_atom_type_symbol
_atom_type_oxidation_number
Cr0+ 0
Hf0+ 0
Si0+ 0
loop_
_atom_site_label
_atom_site_type_symbol
_atom_site_symmetry_multiplicity
_atom_site_Wyckoff_symbol
_atom_site_fract_x
_atom_site_fract_y
_atom_site_fract_z
_atom_site_B_iso_or_equiv
_atom_site_occupancy
_atom_site_attached_hydrogens
Cr1 Cr0+ 4 c 0.15 0.25 0.065 . 1. 0
Hf1 Hf0+ 4 c 0.02 0.25 0.685 . 1. 0
Si1 Si0+ 4 c 0.274 0.25 0.382 . 1. 0
#End of TTdata_626157-ICSD