
#(C) 2017 by FIZ Karlsruhe - Leibniz Institute for Information Infrastructure, and the U.S. Secretary of
#Commerce on behalf of the United States.  All rights reserved.
data_626229-ICSD
_database_code_ICSD 626229
_audit_creation_date 2012-02-01
_chemical_name_systematic 'Lanthanum chromium selenide (1/1/3)'
_chemical_formula_structural 'La Cr Se3'
_chemical_formula_sum 'Cr1 La1 Se3'
_chemical_name_structure_type NH4CdCl3/Sn2S3
_exptl_crystal_density_diffrn 6.42
_publ_section_title

;
Isolement et structure cristalline d'une nouvelle famille de composes des
terres rares de formule generale L Cr Se3 (L = La a Nd)
;
_publ_section_comment 'Cell and Type only determined'
loop_
_citation_id
_citation_journal_full
_citation_year
_citation_journal_volume
_citation_page_first
_citation_page_last
_citation_journal_id_ASTM
primary 'Bulletin de la Societe Chimique de France (Vol=Year)' 1971 1971 2433
2437 BSCFAS
loop_
_publ_author_name
'Nguyen-Huy Dung'
'Etienne, J.'
'Laruelle, P.'
_cell_length_a 8.11
_cell_length_b 3.96
_cell_length_c 13.79
_cell_angle_alpha 90.
_cell_angle_beta 90.
_cell_angle_gamma 90.
_cell_volume 442.87
_cell_formula_units_Z 4
_symmetry_space_group_name_H-M 'P n m a'
_symmetry_Int_Tables_number 62
loop_
_symmetry_equiv_pos_site_id
_symmetry_equiv_pos_as_xyz
1 'x+1/2, y, -z+1/2'
2 'x, -y+1/2, z'
3 '-x+1/2, y+1/2, z+1/2'
4 '-x, -y, -z'
5 '-x+1/2, -y, z+1/2'
6 '-x, y+1/2, -z'
7 'x+1/2, -y+1/2, -z+1/2'
8 'x, y, z'
loop_
_atom_type_symbol
_atom_type_oxidation_number
La3+ 3
Cr3+ 3
Se2- -2
loop_
_atom_site_label
_atom_site_type_symbol
_atom_site_symmetry_multiplicity
_atom_site_Wyckoff_symbol
_atom_site_fract_x
_atom_site_fract_y
_atom_site_fract_z
_atom_site_B_iso_or_equiv
_atom_site_occupancy
_atom_site_attached_hydrogens
La1 La3+ 4 c 0.095 0.25 0.171 . 1. 0
Cr1 Cr3+ 4 c 0.343 0.25 0.948 . 1. 0
Se1 Se2- 4 c 0.191 0.25 0.789 . 1. 0
Se2 Se2- 4 c 0.341 0.25 0.504 . 1. 0
Se3 Se2- 4 c 0.483 0.25 0.11 . 1. 0
#End of TTdata_626229-ICSD