
#(C) 2017 by FIZ Karlsruhe - Leibniz Institute for Information Infrastructure.  All rights reserved.
data_62637-ICSD
_database_code_ICSD 62637
_audit_creation_date 1988-02-22
_audit_update_record 2005-10-01
_chemical_name_systematic 'Magnesium sulfate(IV) hexahydrate'
_chemical_formula_structural 'Mg (S O3) (H2 O)6'
_chemical_formula_sum 'H12 Mg1 O9 S1'
_chemical_name_structure_type MgSO3(H2O)6
_exptl_crystal_density_diffrn 1.74
_cell_measurement_temperature 120.
_publ_section_title 'Deformation density in magnesium sulfite hexahydrate.'
loop_
_citation_id
_citation_journal_full
_citation_year
_citation_journal_volume
_citation_page_first
_citation_page_last
_citation_journal_id_ASTM
primary 'Acta Crystallographica, Section B: Structural Science' 1986 42 552 557
ASBSDK
loop_
_publ_author_name
'Bats, J.W.'
'Fuess, H.'
'Elerman, Y.'
_cell_length_a 5.911(1)
_cell_length_b 5.911(1)
_cell_length_c 5.911(1)
_cell_angle_alpha 96.25(2)
_cell_angle_beta 96.25(2)
_cell_angle_gamma 96.25(2)
_cell_volume 202.55
_cell_formula_units_Z 1
_symmetry_space_group_name_H-M 'R 3 R'
_symmetry_Int_Tables_number 146
_refine_ls_R_factor_all 0.018
loop_
_symmetry_equiv_pos_site_id
_symmetry_equiv_pos_as_xyz
1 'z, x, y'
2 'y, z, x'
3 'x, y, z'
loop_
_atom_type_symbol
_atom_type_oxidation_number
Mg2+ 2
S4+ 4
O2- -2
H1+ 1
loop_
_atom_site_label
_atom_site_type_symbol
_atom_site_symmetry_multiplicity
_atom_site_Wyckoff_symbol
_atom_site_fract_x
_atom_site_fract_y
_atom_site_fract_z
_atom_site_B_iso_or_equiv
_atom_site_occupancy
_atom_site_attached_hydrogens
Mg1 Mg2+ 1 a 0 0 0 0.00718(3) 1. 0
S1 S4+ 1 a -.50313(3) -.50313(3) -.50313(3) 0.00832(2) 1. 0
O1 O2- 3 b -.25462(5) -.48274(5) -.55935(5) 0.01095(6) 1. 0
O2 O2- 3 b -.14493(4) -.32984(4) 0.04902(5) 0.01025(7) 1. 0
O3 O2- 3 b 0.12289(5) 0.31765(4) -.07661(5) 0.01296(10) 1. 0
#End of TTdata_62637-ICSD