
#(C) 2017 by FIZ Karlsruhe - Leibniz Institute for Information Infrastructure, and the U.S. Secretary of
#Commerce on behalf of the United States.  All rights reserved.
data_626718-ICSD
_database_code_ICSD 626718
_audit_creation_date 2010-02-01
_chemical_name_systematic 'Chromium(IV) selenide'
_chemical_formula_structural 'Cr Se2'
_chemical_formula_sum 'Cr1 Se2'
_chemical_name_structure_type CdI2
_exptl_crystal_density_diffrn 5.89
_cell_measurement_temperature 300.
_publ_section_title 'Cr Se2, a new layered dichalcogenide'
_publ_section_comment 'Cell and Type only determined'
loop_
_citation_id
_citation_journal_full
_citation_year
_citation_journal_volume
_citation_page_first
_citation_page_last
_citation_journal_id_ASTM
primary 'Physica B and C (Netherland) (79,1975-)' 1980 99 166 172 PHBCDQ
loop_
_publ_author_name
'van Bruggen, C.F.'
'Haange, R.J.'
'Wiegers, G.A.'
'de Boer, D.K.G.'
_cell_length_a 3.399
_cell_length_b 3.399
_cell_length_c 5.915
_cell_angle_alpha 90.
_cell_angle_beta 90.
_cell_angle_gamma 120.
_cell_volume 59.18
_cell_formula_units_Z 1
_symmetry_space_group_name_H-M 'P -3 m 1'
_symmetry_Int_Tables_number 164
loop_
_symmetry_equiv_pos_site_id
_symmetry_equiv_pos_as_xyz
1 'x-y, -y, -z'
2 '-x, -x+y, -z'
3 'y, x, -z'
4 'x-y, x, -z'
5 'y, -x+y, -z'
6 '-x, -y, -z'
7 '-x+y, y, z'
8 'x, x-y, z'
9 '-y, -x, z'
10 '-x+y, -x, z'
11 '-y, x-y, z'
12 'x, y, z'
loop_
_atom_type_symbol
_atom_type_oxidation_number
Cr4+ 4
Se2- -2
loop_
_atom_site_label
_atom_site_type_symbol
_atom_site_symmetry_multiplicity
_atom_site_Wyckoff_symbol
_atom_site_fract_x
_atom_site_fract_y
_atom_site_fract_z
_atom_site_B_iso_or_equiv
_atom_site_occupancy
_atom_site_attached_hydrogens
Cr1 Cr4+ 1 a 0 0 0 . 1. 0
Se1 Se2- 2 d 0.3333 0.6667 0.25 . 1. 0
#End of TTdata_626718-ICSD