
#(C) 2017 by FIZ Karlsruhe - Leibniz Institute for Information Infrastructure, and the U.S. Secretary of
#Commerce on behalf of the United States.  All rights reserved.
data_627913-ICSD
_database_code_ICSD 627913
_audit_creation_date 2013-02-01
_chemical_name_systematic 'Hafnium copper silicide (2/1/4)'
_chemical_formula_structural 'Hf2 Cu Si4'
_chemical_formula_sum 'Cu1 Hf2 Si4'
_chemical_name_structure_type CuHf2Ge4
_exptl_crystal_density_diffrn 8.13
_publ_section_title
'Die ternaeren Systeme (Titan, Zirkonium, Hafnium)-Kupfer-Silizium'
_publ_section_comment 'Cell and Type only determined'
loop_
_citation_id
_citation_journal_full
_citation_year
_citation_journal_volume
_citation_page_first
_citation_page_last
_citation_journal_id_ASTM
primary 'Journal of the Less-Common Metals' 1974 34 39 71 JCOMAH
loop_
_publ_author_name
'Sprenger, H.'
_cell_length_a 3.676
_cell_length_b 32.43
_cell_length_c 3.652
_cell_angle_alpha 90.
_cell_angle_beta 90.
_cell_angle_gamma 90.
_cell_volume 435.36
_cell_formula_units_Z 4
_symmetry_space_group_name_H-M 'C m c m'
_symmetry_Int_Tables_number 63
loop_
_symmetry_equiv_pos_site_id
_symmetry_equiv_pos_as_xyz
1 '-x, y, -z+1/2'
2 '-x, -y, z+1/2'
3 '-x, y, z'
4 '-x, -y, -z'
5 'x, -y, z+1/2'
6 'x, y, -z+1/2'
7 'x, -y, -z'
8 'x, y, z'
9 '-x+1/2, y+1/2, -z+1/2'
10 '-x+1/2, -y+1/2, z+1/2'
11 '-x+1/2, y+1/2, z'
12 '-x+1/2, -y+1/2, -z'
13 'x+1/2, -y+1/2, z+1/2'
14 'x+1/2, y+1/2, -z+1/2'
15 'x+1/2, -y+1/2, -z'
16 'x+1/2, y+1/2, z'
loop_
_atom_type_symbol
_atom_type_oxidation_number
Hf0+ 0
Cu0+ 0
Si0+ 0
loop_
_atom_site_label
_atom_site_type_symbol
_atom_site_symmetry_multiplicity
_atom_site_Wyckoff_symbol
_atom_site_fract_x
_atom_site_fract_y
_atom_site_fract_z
_atom_site_B_iso_or_equiv
_atom_site_occupancy
_atom_site_attached_hydrogens
Hf1 Hf0+ 4 c 0 0.05 0.25 . 1. 0
Hf2 Hf0+ 4 c 0 0.325 0.25 . 1. 0
Cu1 Cu0+ 4 c 0 0.75 0.25 . 1. 0
Si1 Si0+ 4 c 0 0.475 0.25 . 1. 0
Si2 Si0+ 4 c 0 0.615 0.25 . 1. 0
Si3 Si0+ 4 c 0 0.885 0.25 . 1. 0
Si4 Si0+ 4 c 0 0.204 0.25 . 1. 0
#End of TTdata_627913-ICSD