
#(C) 2017 by FIZ Karlsruhe - Leibniz Institute for Information Infrastructure, and the U.S. Secretary of
#Commerce on behalf of the United States.  All rights reserved.
data_629126-ICSD
_database_code_ICSD 629126
_audit_creation_date 2013-08-01
_chemical_name_systematic 'Copper thallium selenide (3/1/2)'
_chemical_formula_structural 'Cu3 Tl Se2'
_chemical_formula_sum 'Cu3 Se2 Tl1'
_chemical_name_structure_type Ag3CsS2
_exptl_crystal_density_diffrn 7.72
_publ_section_title 'A phase-analytical study of the Tl - Cu - Se system'
_publ_section_comment 'Cell and Type only determined'
loop_
_citation_id
_citation_journal_full
_citation_year
_citation_journal_volume
_citation_page_first
_citation_page_last
_citation_journal_id_ASTM
primary 'Journal of Solid State Chemistry' 1987 70 65 70 JSSCBI
loop_
_publ_author_name
'Berger, R.'
_cell_length_a 15.2128(7)
_cell_length_b 4.0115(2)
_cell_length_c 8.3944(4)
_cell_angle_alpha 90.
_cell_angle_beta 111.70(4)
_cell_angle_gamma 90.
_cell_volume 475.97
_cell_formula_units_Z 4
_symmetry_space_group_name_H-M 'C 1 2/m 1'
_symmetry_Int_Tables_number 12
loop_
_symmetry_equiv_pos_site_id
_symmetry_equiv_pos_as_xyz
1 '-x, y, -z'
2 '-x, -y, -z'
3 'x, -y, z'
4 'x, y, z'
5 '-x+1/2, y+1/2, -z'
6 '-x+1/2, -y+1/2, -z'
7 'x+1/2, -y+1/2, z'
8 'x+1/2, y+1/2, z'
loop_
_atom_type_symbol
_atom_type_oxidation_number
Tl1+ 1
Cu1+ 1
Se2- -2
loop_
_atom_site_label
_atom_site_type_symbol
_atom_site_symmetry_multiplicity
_atom_site_Wyckoff_symbol
_atom_site_fract_x
_atom_site_fract_y
_atom_site_fract_z
_atom_site_B_iso_or_equiv
_atom_site_occupancy
_atom_site_attached_hydrogens
Tl1 Tl1+ 4 i 0.136 0 0.043 . 1. 0
Cu1 Cu1+ 4 i 0.595 0 0.647 . 1. 0
Cu2 Cu1+ 4 i 0.689 0 0.425 . 1. 0
Cu3 Cu1+ 4 i 0.056 0 0.397 . 1. 0
Se1 Se2- 4 i 0.192 0 0.683 . 1. 0
Se2 Se2- 4 i 0.522 0 0.234 . 1. 0
#End of TTdata_629126-ICSD