
#(C) 2017 by FIZ Karlsruhe - Leibniz Institute for Information Infrastructure.  All rights reserved.
data_62932-ICSD
_database_code_ICSD 62932
_audit_creation_date 1988-12-19
_audit_update_record 1988-12-30
_chemical_name_systematic 'Trizirconium pentarhodium'
_chemical_formula_structural 'Zr3 Rh5'
_chemical_formula_sum 'Rh5 Zr3'
_chemical_name_structure_type Pu3Pd5
_exptl_crystal_density_diffrn 9.92
_publ_section_title

;
Zr3 Rh5 with Pu3 Pd5 -type structure, a structure geometrically related to the
Cs Cl type
;
loop_
_citation_id
_citation_journal_full
_citation_year
_citation_journal_volume
_citation_page_first
_citation_page_last
_citation_journal_id_ASTM
primary 'Acta Crystallographica, Section C: Crystal Structure Communications'
1988 44 14 18 ACSCEE
loop_
_publ_author_name
'Cenzual, K.'
'Jorda, J.L.'
'Parthe, E.'
_cell_length_a 8.6634(9)
_cell_length_b 6.9860(3)
_cell_length_c 8.6218(3)
_cell_angle_alpha 90.
_cell_angle_beta 90.
_cell_angle_gamma 90.
_cell_volume 521.81
_cell_formula_units_Z 4
_symmetry_space_group_name_H-M 'C m c m'
_symmetry_Int_Tables_number 63
_refine_ls_R_factor_all 0.052
loop_
_symmetry_equiv_pos_site_id
_symmetry_equiv_pos_as_xyz
1 '-x, y, -z+1/2'
2 '-x, -y, z+1/2'
3 '-x, y, z'
4 '-x, -y, -z'
5 'x, -y, z+1/2'
6 'x, y, -z+1/2'
7 'x, -y, -z'
8 'x, y, z'
9 '-x+1/2, y+1/2, -z+1/2'
10 '-x+1/2, -y+1/2, z+1/2'
11 '-x+1/2, y+1/2, z'
12 '-x+1/2, -y+1/2, -z'
13 'x+1/2, -y+1/2, z+1/2'
14 'x+1/2, y+1/2, -z+1/2'
15 'x+1/2, -y+1/2, -z'
16 'x+1/2, y+1/2, z'
loop_
_atom_type_symbol
_atom_type_oxidation_number
Rh0+ 0
Zr0+ 0
Rh0+ 0
Zr0+ 0
loop_
_atom_site_label
_atom_site_type_symbol
_atom_site_symmetry_multiplicity
_atom_site_Wyckoff_symbol
_atom_site_fract_x
_atom_site_fract_y
_atom_site_fract_z
_atom_site_B_iso_or_equiv
_atom_site_occupancy
_atom_site_attached_hydrogens
Rh1 Rh0+ 8 g 0.2642(2) 0.2411(3) 0.25 0.0075(5) 1. 0
Rh2 Rh0+ 8 f 0 0.2878(3) 0.5243(2) 0.0082(5) 1. 0
Zr1 Zr0+ 8 e 0.2090(3) 0 0 0.0069(6) 1. 0
Rh3 Rh0+ 4 c 0 0.0119(4) 0.25 0.0055(6) 1. 0
Zr2 Zr0+ 4 c 0 0.4403(5) 0.25 0.0088(7) 1. 0
#End of TTdata_62932-ICSD