
#(C) 2017 by FIZ Karlsruhe - Leibniz Institute for Information Infrastructure, and the U.S. Secretary of
#Commerce on behalf of the United States.  All rights reserved.
data_632166-ICSD
_database_code_ICSD 632166
_audit_creation_date 2013-02-01
_chemical_name_systematic 'Zirconium iron germanide (1/1/1)'
_chemical_formula_structural 'Zr Fe Ge'
_chemical_formula_sum 'Fe1 Ge1 Zr1'
_chemical_name_structure_type TiNiSi-MgSrSi
_exptl_crystal_density_diffrn 7.71
_publ_section_title

;
New ternary compounds of equiatomic composition in the systems of two
transition metals and silicon or germanium
;
_publ_section_comment 'Cell and Type only determined'
loop_
_citation_id
_citation_journal_full
_citation_year
_citation_journal_volume
_citation_page_first
_citation_page_last
_citation_journal_id_ASTM
primary 'Dopov. Akad. Nauk Ukr. RSR Ser. B' 1974 36 1030 1030 DBGGAM
loop_
_publ_author_name
'Yarmolyuk, Ya.P.'
'Gladyshevskii, E.I.'
_cell_length_a 6.531(5)
_cell_length_b 7.410(6)
_cell_length_c 3.908(2)
_cell_angle_alpha 90.
_cell_angle_beta 90.
_cell_angle_gamma 90.
_cell_volume 189.13
_cell_formula_units_Z 4
_symmetry_space_group_name_H-M 'P n a m'
_symmetry_Int_Tables_number 62
loop_
_symmetry_equiv_pos_site_id
_symmetry_equiv_pos_as_xyz
1 'x+1/2, -y+1/2, z'
2 'x, y, -z+1/2'
3 '-x+1/2, y+1/2, z+1/2'
4 '-x, -y, -z'
5 '-x+1/2, y+1/2, -z'
6 '-x, -y, z+1/2'
7 'x+1/2, -y+1/2, -z+1/2'
8 'x, y, z'
loop_
_atom_type_symbol
_atom_type_oxidation_number
Fe0+ 0
Zr0+ 0
Ge0+ 0
loop_
_atom_site_label
_atom_site_type_symbol
_atom_site_symmetry_multiplicity
_atom_site_Wyckoff_symbol
_atom_site_fract_x
_atom_site_fract_y
_atom_site_fract_z
_atom_site_B_iso_or_equiv
_atom_site_occupancy
_atom_site_attached_hydrogens
Fe1 Fe0+ 4 c 0.131 0.586 0.25 . 1. 0
Zr1 Zr0+ 4 c 0.011 0.188 0.25 . 1. 0
Ge1 Ge0+ 4 c 0.771 0.614 0.25 . 1. 0
#End of TTdata_632166-ICSD