
#(C) 2017 by FIZ Karlsruhe - Leibniz Institute for Information Infrastructure.  All rights reserved.
data_63269-ICSD
_database_code_ICSD 63269
_audit_creation_date 1989-12-04
_chemical_name_systematic 'Dibarium yttrium tricopper hexaoxide'
_chemical_formula_structural 'Ba2 Y Cu3 O6'
_chemical_formula_sum 'Ba2 Cu3 O6 Y1'
_chemical_name_structure_type YBa2Cu3O7-x(tet)
_exptl_crystal_density_diffrn 6.14
_publ_section_title 'X-ray investigation of Ba2 Y Cu3 O6.'
loop_
_citation_id
_citation_journal_full
_citation_year
_citation_journal_volume
_citation_page_first
_citation_page_last
_citation_journal_id_ASTM
primary 'Inorganic Chemistry' 1988 27 871 873 INOCAJ
loop_
_publ_author_name
'Garbauskas, M.F.'
'Green, R.W.'
'Arendt, R.H.'
'Kasper, J.S.'
_cell_length_a 3.8594(5)
_cell_length_b 3.8594(5)
_cell_length_c 11.814(4)
_cell_angle_alpha 90.
_cell_angle_beta 90.
_cell_angle_gamma 90.
_cell_volume 175.97
_cell_formula_units_Z 1
_symmetry_space_group_name_H-M 'P 4/m m m'
_symmetry_Int_Tables_number 123
_refine_ls_R_factor_all 0.0382
loop_
_symmetry_equiv_pos_site_id
_symmetry_equiv_pos_as_xyz
1 'y, x, -z'
2 '-y, -x, -z'
3 '-y, x, -z'
4 'y, -x, -z'
5 '-x, y, -z'
6 'x, -y, -z'
7 'x, y, -z'
8 '-x, -y, -z'
9 '-y, -x, z'
10 'y, x, z'
11 'y, -x, z'
12 '-y, x, z'
13 'x, -y, z'
14 '-x, y, z'
15 '-x, -y, z'
16 'x, y, z'
loop_
_atom_type_symbol
_atom_type_oxidation_number
Cu1+ 1
Cu2+ 2
Y3+ 3
Ba2+ 2
O2- -2
loop_
_atom_site_label
_atom_site_type_symbol
_atom_site_symmetry_multiplicity
_atom_site_Wyckoff_symbol
_atom_site_fract_x
_atom_site_fract_y
_atom_site_fract_z
_atom_site_B_iso_or_equiv
_atom_site_occupancy
_atom_site_attached_hydrogens
Cu1 Cu1+ 1 a 0 0 0 . 1. 0
Cu2 Cu2+ 2 g 0 0 0.3611(2) . 1. 0
Y1 Y3+ 1 d 0.5 0.5 0.5 . 1. 0
Ba1 Ba2+ 2 h 0.5 0.5 0.1946(1) . 1. 0
O1 O2- 2 g 0 0 0.1524(13) . 1. 0
O2 O2- 4 i 0 0.5 0.3798(8) . 1. 0
loop_
_atom_site_aniso_label
_atom_site_aniso_type_symbol
_atom_site_aniso_U_11
_atom_site_aniso_U_22
_atom_site_aniso_U_33
_atom_site_aniso_U_12
_atom_site_aniso_U_13
_atom_site_aniso_U_23
Cu1 Cu1+ 0.014(1) 0.014(1) 0.009(2) 0 0 0
Cu2 Cu2+ 0.004(1) 0.004(1) 0.010(1) 0 0 0
Y1 Y3+ 0.005(1) 0.005(1) 0.008(1) 0 0 0
Ba1 Ba2+ 0.008(1) 0.008(1) 0.009(1) 0 0 0
O1 O2- 0.021(6) 0.021(6) 0.006(6) 0 0 0
O2 O2- 0.008(5) 0.006(5) 0.012(4) 0 0 0
#End of TTdata_63269-ICSD