
#(C) 2017 by FIZ Karlsruhe - Leibniz Institute for Information Infrastructure, and the U.S. Secretary of
#Commerce on behalf of the United States.  All rights reserved.
data_632646-ICSD
_database_code_ICSD 632646
_audit_creation_date 2013-02-01
_chemical_name_systematic 'Iron molybdenum phosphide (1/1/1)'
_chemical_formula_structural 'Fe Mo P'
_chemical_formula_sum 'Fe1 Mo1 P1'
_chemical_name_structure_type TiNiSi-MgSrSi
_exptl_crystal_density_diffrn 8.24
_publ_section_title

;
Nouveaux arseniures et phosphiures ternaires de molybdene ou de tungstene et
d'elements 3d, de formule: M2-x Mex X (M = element 3d; Me= Mo, W; X = As, P)
;
_publ_section_comment 'Cell and Type only determined'
loop_
_citation_id
_citation_journal_full
_citation_year
_citation_journal_volume
_citation_page_first
_citation_page_last
_citation_journal_id_ASTM
primary 'Materials Research Bulletin' 1977 12 381 388 MRBUAC
loop_
_publ_author_name
'Guerin, R.'
'Sergent, M.'
_cell_length_a 5.922
_cell_length_b 3.663
_cell_length_c 6.79
_cell_angle_alpha 90.
_cell_angle_beta 90.
_cell_angle_gamma 90.
_cell_volume 147.29
_cell_formula_units_Z 4
_symmetry_space_group_name_H-M 'P n m a'
_symmetry_Int_Tables_number 62
loop_
_symmetry_equiv_pos_site_id
_symmetry_equiv_pos_as_xyz
1 'x+1/2, y, -z+1/2'
2 'x, -y+1/2, z'
3 '-x+1/2, y+1/2, z+1/2'
4 '-x, -y, -z'
5 '-x+1/2, -y, z+1/2'
6 '-x, y+1/2, -z'
7 'x+1/2, -y+1/2, -z+1/2'
8 'x, y, z'
loop_
_atom_type_symbol
_atom_type_oxidation_number
Fe0+ 0
Mo0+ 0
P0+ 0
loop_
_atom_site_label
_atom_site_type_symbol
_atom_site_symmetry_multiplicity
_atom_site_Wyckoff_symbol
_atom_site_fract_x
_atom_site_fract_y
_atom_site_fract_z
_atom_site_B_iso_or_equiv
_atom_site_occupancy
_atom_site_attached_hydrogens
Fe1 Fe0+ 4 c 0.859 0.25 0.066 . 1. 0
Mo1 Mo0+ 4 c 0.969 0.25 0.671 . 1. 0
P1 P0+ 4 c 0.236 0.25 0.12 . 1. 0
#End of TTdata_632646-ICSD