
#(C) 2017 by FIZ Karlsruhe - Leibniz Institute for Information Infrastructure.  All rights reserved.
data_63272-ICSD
_database_code_ICSD 63272
_audit_creation_date 1989-12-04
_audit_update_record 2012-08-01
_chemical_name_systematic 'Antimony antimonate - beta, LT'
_chemical_formula_structural 'Sb (Sb O4)'
_chemical_formula_sum 'O4 Sb2'
_chemical_name_structure_type HgMoO4
_chemical_name_mineral Clinocervantite
_exptl_crystal_density_diffrn 6.72
_cell_measurement_temperature 295.
_publ_section_title 'Diantimony tetraoxides revisited'
loop_
_citation_id
_citation_journal_full
_citation_year
_citation_journal_volume
_citation_page_first
_citation_page_last
_citation_journal_id_ASTM
primary 'Inorganic Chemistry' 1988 27 1367 1370 INOCAJ
loop_
_publ_author_name
'Amador, J.'
'Gutierrez Puebla, E.'
'Monge, M.A.'
'Rasines, I.'
'Ruiz Valero, C.'
_cell_length_a 12.057(1)
_cell_length_b 4.8352(3)
_cell_length_c 5.384(2)
_cell_angle_alpha 90.
_cell_angle_beta 104.56(1)
_cell_angle_gamma 90.
_cell_volume 303.8
_cell_formula_units_Z 4
_symmetry_space_group_name_H-M 'C 1 2/c 1'
_symmetry_Int_Tables_number 15
_refine_ls_R_factor_all 0.042
loop_
_symmetry_equiv_pos_site_id
_symmetry_equiv_pos_as_xyz
1 'x, -y, z+1/2'
2 '-x, -y, -z'
3 '-x, y, -z+1/2'
4 'x, y, z'
5 'x+1/2, -y+1/2, z+1/2'
6 '-x+1/2, -y+1/2, -z'
7 '-x+1/2, y+1/2, -z+1/2'
8 'x+1/2, y+1/2, z'
loop_
_atom_type_symbol
_atom_type_oxidation_number
Sb5+ 5
Sb3+ 3
O2- -2
loop_
_atom_site_label
_atom_site_type_symbol
_atom_site_symmetry_multiplicity
_atom_site_Wyckoff_symbol
_atom_site_fract_x
_atom_site_fract_y
_atom_site_fract_z
_atom_site_B_iso_or_equiv
_atom_site_occupancy
_atom_site_attached_hydrogens
Sb1 Sb5+ 4 c 0.25 0.25 0 . 1. 0
Sb2 Sb3+ 4 e 0 0.2865(2) 0.25 . 1. 0
O1 O2- 8 f 0.1908(8) 0.0516(19) 0.6749(17) . 1. 0
O2 O2- 8 f 0.0946(8) 0.4132(20) 0.9637(17) . 1. 0
loop_
_atom_site_aniso_label
_atom_site_aniso_type_symbol
_atom_site_aniso_U_11
_atom_site_aniso_U_22
_atom_site_aniso_U_33
_atom_site_aniso_U_12
_atom_site_aniso_U_13
_atom_site_aniso_U_23
Sb1 Sb5+ 0.0011(5) 0.0023(5) 0.0010(5) 0.0001(3) 0.0004(4) 0.0001(3)
Sb2 Sb3+ 0.0045(5) 0.0029(5) 0.0055(5) 0 0.0009(4) 0
O1 O2- 0.0068(39) 0.0046(39) 0.0029(39) 0.0013(31) 0.0027(32) -0.0011(30)
O2 O2- 0.0057(41) 0.0077(40) 0.0051(42) 0.0049(33) 0.0042(34) 0.0015(32)
#End of TTdata_63272-ICSD