
#(C) 2017 by FIZ Karlsruhe - Leibniz Institute for Information Infrastructure.  All rights reserved.
data_63294-ICSD
_database_code_ICSD 63294
_audit_creation_date 1989-12-04
_audit_update_record 2012-02-01
_chemical_name_systematic 'Catena-(hexayttrium dicarbide heptaiodide)'
_chemical_formula_structural 'Y6 C2 I7'
_chemical_formula_sum 'C2 I7 Y6'
_chemical_name_structure_type Y6C2I7
_exptl_crystal_density_diffrn 5.52
_publ_section_title

;
Two extended metal chain compounds, Y4 I5 C and Y6 I7 C. Synthesis, structure,
properties and bonding.
;
loop_
_citation_id
_citation_journal_full
_citation_year
_citation_journal_volume
_citation_page_first
_citation_page_last
_citation_journal_id_ASTM
primary 'Inorganic Chemistry' 1988 27 1791 1797 INOCAJ
loop_
_publ_author_name
'Kauzlarich, S.M.'
'Hughbanks, T.'
'Corbett, J.D.'
'Klavins, P.'
'Shelton, R.N.'
_cell_length_a 21.557(8)
_cell_length_b 3.9093(9)
_cell_length_c 12.374(6)
_cell_angle_alpha 90.
_cell_angle_beta 123.55(3)
_cell_angle_gamma 90.
_cell_volume 869.07
_cell_formula_units_Z 2
_symmetry_space_group_name_H-M 'C 1 2/m 1'
_symmetry_Int_Tables_number 12
_refine_ls_R_factor_all 0.032
loop_
_symmetry_equiv_pos_site_id
_symmetry_equiv_pos_as_xyz
1 '-x, y, -z'
2 '-x, -y, -z'
3 'x, -y, z'
4 'x, y, z'
5 '-x+1/2, y+1/2, -z'
6 '-x+1/2, -y+1/2, -z'
7 'x+1/2, -y+1/2, z'
8 'x+1/2, y+1/2, z'
loop_
_atom_type_symbol
_atom_type_oxidation_number
Y3+ 3
Y2+ 2.25
I1- -1
C4- -4
loop_
_atom_site_label
_atom_site_type_symbol
_atom_site_symmetry_multiplicity
_atom_site_Wyckoff_symbol
_atom_site_fract_x
_atom_site_fract_y
_atom_site_fract_z
_atom_site_B_iso_or_equiv
_atom_site_occupancy
_atom_site_attached_hydrogens
Y1 Y3+ 4 i 0.76744(6) 0 0.8256(1) . 1. 0
Y2 Y2+ 4 i 0.31050(6) 0 0.6312(1) . 1. 0
Y3 Y2+ 4 i 0.13689(6) 0 0.5582(1) . 1. 0
I1 I1- 4 i 0.39415(4) 0 0.94216(8) . 1. 0
I2 I1- 4 i 0.16050(5) 0 0.83421(9) . 1. 0
I3 I1- 4 i 0.05427(4) 0 0.27048(8) . 1. 0
I4 I1- 2 d 0.5 0 0.5 . 1. 0
C1 C4- 4 i 0.7193(5) 0 0.6018(12) 0.5(2) 1. 0
loop_
_atom_site_aniso_label
_atom_site_aniso_type_symbol
_atom_site_aniso_B_11
_atom_site_aniso_B_22
_atom_site_aniso_B_33
_atom_site_aniso_B_12
_atom_site_aniso_B_13
_atom_site_aniso_B_23
Y1 Y3+ 1.53(4) 1.17(4) 1.43(5) 0 0.92(4) 0
Y2 Y2+ 1.26(4) 0.96(4) 1.30(5) 0 0.77(4) 0
Y3 Y2+ 1.42(4) 1.03(4) 1.42(5) 0 0.93(4) 0
I1 I1- 1.42(3) 0.97(3) 1.46(4) 0 0.81(3) 0
I2 I1- 1.84(3) 1.00(3) 1.74(4) 0 1.27(3) 0
I3 I1- 1.32(3) 0.97(3) 1.36(3) 0 0.75(3) 0
I4 I1- 1.61(4) 0.89(4) 2.46(6) 0 1.34(4) 0
#End of TTdata_63294-ICSD