
#(C) 2017 by FIZ Karlsruhe - Leibniz Institute for Information Infrastructure, and the U.S. Secretary of
#Commerce on behalf of the United States.  All rights reserved.
data_633457-ICSD
_database_code_ICSD 633457
_audit_creation_date 2012-08-01
_chemical_name_systematic 'Scandium iron stannide (1/6/6)'
_chemical_formula_structural 'Sc Fe6 Sn6'
_chemical_formula_sum 'Fe6 Sc1 Sn6'
_chemical_name_structure_type Fe6Ge6Mg
_exptl_crystal_density_diffrn 8.33
_publ_section_title

;
Nouveaux stannures tenaires: M Mn6 Sn6 (M = Sc, Y, Sm, Gd-Tm, Lu) et Sc Fe6
Sn6
;
_publ_section_comment 'Cell and Type only determined'
loop_
_citation_id
_citation_journal_full
_citation_year
_citation_journal_volume
_citation_page_first
_citation_page_last
_citation_journal_id_ASTM
primary 'Materials Research Bulletin' 1988 23 1629 1633 MRBUAC
loop_
_publ_author_name
'Malaman, B.'
'Venturini, G.'
'Roques, B.'
_cell_length_a 5.330(2)
_cell_length_b 5.330(2)
_cell_length_c 8.845(5)
_cell_angle_alpha 90.
_cell_angle_beta 90.
_cell_angle_gamma 120.
_cell_volume 217.61
_cell_formula_units_Z 1
_symmetry_space_group_name_H-M 'P 6/m m m'
_symmetry_Int_Tables_number 191
loop_
_symmetry_equiv_pos_site_id
_symmetry_equiv_pos_as_xyz
1 '-x, -x+y, -z'
2 'x-y, -y, -z'
3 'y, x, -z'
4 '-x+y, -x, -z'
5 '-y, x-y, -z'
6 'x, y, -z'
7 'x, x-y, -z'
8 '-x+y, y, -z'
9 '-y, -x, -z'
10 'x-y, x, -z'
11 'y, -x+y, -z'
12 '-x, -y, -z'
13 'x, x-y, z'
14 '-x+y, y, z'
15 '-y, -x, z'
16 'x-y, x, z'
17 'y, -x+y, z'
18 '-x, -y, z'
19 '-x, -x+y, z'
20 'x-y, -y, z'
21 'y, x, z'
22 '-x+y, -x, z'
23 '-y, x-y, z'
24 'x, y, z'
loop_
_atom_type_symbol
_atom_type_oxidation_number
Sc0+ 0
Sn0+ 0
Fe0+ 0
loop_
_atom_site_label
_atom_site_type_symbol
_atom_site_symmetry_multiplicity
_atom_site_Wyckoff_symbol
_atom_site_fract_x
_atom_site_fract_y
_atom_site_fract_z
_atom_site_B_iso_or_equiv
_atom_site_occupancy
_atom_site_attached_hydrogens
Sc1 Sc0+ 1 a 0 0 0 . 1. 0
Sn1 Sn0+ 2 c 0.3333 0.6667 0 . 1. 0
Sn2 Sn0+ 2 d 0.3333 0.6667 0.5 . 1. 0
Sn3 Sn0+ 2 e 0 0 0.341 . 1. 0
Fe1 Fe0+ 6 i 0.5 0 0.234 . 1. 0
#End of TTdata_633457-ICSD