
data_63423-ICSD
_database_code_ICSD 63423
_audit_creation_date 1992-01-20
_audit_update_record 1999-11-30
_chemical_name_systematic 'Yttrium dibarium copper(I) dicopper oxide'
_chemical_formula_structural 'Y Ba2 Cu Cu2 O6'
_chemical_formula_sum 'Ba2 Cu3 O6 Y1'
_exptl_crystal_density_diffrn 6.19
_cell_length_a 3.859
_cell_length_b 3.859
_cell_length_c 11.71
_cell_angle_alpha 90.
_cell_angle_beta 90.
_cell_angle_gamma 90.
_cell_volume 174.38
_cell_formula_units_Z 1
_symmetry_space_group_name_H-M 'P -4 m 2'
_symmetry_Int_Tables_number 115
loop_
_symmetry_equiv_pos_site_id
_symmetry_equiv_pos_as_xyz
1 '-y, -x, -z'
2 'x, -y, z'
3 'y, x, -z'
4 '-x, y, z'
5 'y, -x, -z'
6 '-x, -y, z'
7 '-y, x, -z'
8 'x, y, z'
loop_
_atom_type_symbol
_atom_type_oxidation_number
Ba2+ 2
Y3+ 3
Cu1+ 1
Cu2+ 2
O2- -2
loop_
_atom_site_label
_atom_site_type_symbol
_atom_site_symmetry_multiplicity
_atom_site_Wyckoff_symbol
_atom_site_fract_x
_atom_site_fract_y
_atom_site_fract_z
_atom_site_B_iso_or_equiv
_atom_site_occupancy
_atom_site_attached_hydrogens
Ba1 Ba2+ 2 f 0.5 0.5 0.19 . 1. 0
Y1 Y3+ 1 c 0.5 0.5 0.5 . 1. 0
Cu1 Cu1+ 1 a 0 0 0 . 1. 0
Cu2 Cu2+ 2 e 0 0 0.36 . 1. 0
O1 O2- 2 g 0.5 0 0.38 . 1. 0
O2 O2- 2 g 0.5 0 0.61 . 1. 0
O3 O2- 2 e 0 0 0.15 . 1. 0
