
#(C) 2017 by FIZ Karlsruhe - Leibniz Institute for Information Infrastructure, and the U.S. Secretary of
#Commerce on behalf of the United States.  All rights reserved.
data_634506-ICSD
_database_code_ICSD 634506
_audit_creation_date 2013-08-01
_chemical_name_systematic 'Lanthanum nickel gallide (2/1/10)'
_chemical_formula_structural 'La2 Ni Ga10'
_chemical_formula_sum 'Ga10 La2 Ni1'
_chemical_name_structure_type Ce2Ga10Ni
_exptl_crystal_density_diffrn 7.06
_publ_section_title

;
Crystal chemistry of series of inhomogeneous linear structures 3. The crystal
structures of Ce2 Ga10 Ni and La2 Ca10 Ni
;
_publ_section_comment 'Cell and Type only determined'
loop_
_citation_id
_citation_journal_full
_citation_year
_citation_journal_volume
_citation_page_first
_citation_page_last
_citation_journal_id_ASTM
primary 'Soviet Physics, Crystallography (= Kristallografiya)' 1982 27 599 600
SPHCA6
loop_
_publ_author_name
'Yarmolyuk, Ya.P.'
'Grin', Yu.N.'
'Rozhdestvenskaya, I.V.'
'Usov, O.A.'
'Kuz'min, A.M.'
'Bruskov, V.A.'
'Gladyshevskii, E.I.'
_cell_length_a 4.292(1)
_cell_length_b 4.292(1)
_cell_length_c 26.41(2)
_cell_angle_alpha 90.
_cell_angle_beta 90.
_cell_angle_gamma 90.
_cell_volume 486.51
_cell_formula_units_Z 2
_symmetry_space_group_name_H-M 'I 4/m m m'
_symmetry_Int_Tables_number 139
loop_
_symmetry_equiv_pos_site_id
_symmetry_equiv_pos_as_xyz
1 'y, x, -z'
2 '-y, -x, -z'
3 '-y, x, -z'
4 'y, -x, -z'
5 '-x, y, -z'
6 'x, -y, -z'
7 'x, y, -z'
8 '-x, -y, -z'
9 '-y, -x, z'
10 'y, x, z'
11 'y, -x, z'
12 '-y, x, z'
13 'x, -y, z'
14 '-x, y, z'
15 '-x, -y, z'
16 'x, y, z'
17 'y+1/2, x+1/2, -z+1/2'
18 '-y+1/2, -x+1/2, -z+1/2'
19 '-y+1/2, x+1/2, -z+1/2'
20 'y+1/2, -x+1/2, -z+1/2'
21 '-x+1/2, y+1/2, -z+1/2'
22 'x+1/2, -y+1/2, -z+1/2'
23 'x+1/2, y+1/2, -z+1/2'
24 '-x+1/2, -y+1/2, -z+1/2'
25 '-y+1/2, -x+1/2, z+1/2'
26 'y+1/2, x+1/2, z+1/2'
27 'y+1/2, -x+1/2, z+1/2'
28 '-y+1/2, x+1/2, z+1/2'
29 'x+1/2, -y+1/2, z+1/2'
30 '-x+1/2, y+1/2, z+1/2'
31 '-x+1/2, -y+1/2, z+1/2'
32 'x+1/2, y+1/2, z+1/2'
loop_
_atom_type_symbol
_atom_type_oxidation_number
La0+ 0
Ga0+ 0
Ni0+ 0
loop_
_atom_site_label
_atom_site_type_symbol
_atom_site_symmetry_multiplicity
_atom_site_Wyckoff_symbol
_atom_site_fract_x
_atom_site_fract_y
_atom_site_fract_z
_atom_site_B_iso_or_equiv
_atom_site_occupancy
_atom_site_attached_hydrogens
La1 La0+ 4 e 0 0 0.354 . 1. 0
Ga1 Ga0+ 4 d 0 0.5 0.25 . 1. 0
Ga2 Ga0+ 8 g 0 0.5 0.451 . 1. 0
Ga3 Ga0+ 4 e 0 0 0.106 . 1. 0
Ga4 Ga0+ 4 e 0 0 0.197 . 1. 0
Ni1 Ni0+ 2 b 0 0 0.5 . 1. 0
#End of TTdata_634506-ICSD