
data_635023-ICSD
_database_code_ICSD 635023
_audit_creation_date 2008-08-01
_audit_update_record 2017-08-01
_chemical_name_systematic 'Gallium osmium (3/1)'
_chemical_formula_structural 'Ga3 Os'
_chemical_formula_sum 'Ga3 Os1'
_chemical_name_structure_type CoGa3
_exptl_crystal_density_diffrn 9.34
_cell_length_a 6.488
_cell_length_b 6.488
_cell_length_c 6.748
_cell_angle_alpha 90.
_cell_angle_beta 90.
_cell_angle_gamma 90.
_cell_volume 284.05
_cell_formula_units_Z 4
_symmetry_space_group_name_H-M 'P -4 n 2'
_symmetry_Int_Tables_number 118
loop_
_symmetry_equiv_pos_site_id
_symmetry_equiv_pos_as_xyz
1 '-y+1/2, -x+1/2, -z+1/2'
2 'y, -x, -z'
3 'x+1/2, -y+1/2, z+1/2'
4 '-x, -y, z'
5 'y+1/2, x+1/2, -z+1/2'
6 '-y, x, -z'
7 '-x+1/2, y+1/2, z+1/2'
8 'x, y, z'
loop_
_atom_type_symbol
_atom_type_oxidation_number
Ga0+ 0
Os0+ 0
loop_
_atom_site_label
_atom_site_type_symbol
_atom_site_symmetry_multiplicity
_atom_site_Wyckoff_symbol
_atom_site_fract_x
_atom_site_fract_y
_atom_site_fract_z
_atom_site_B_iso_or_equiv
_atom_site_occupancy
_atom_site_attached_hydrogens
Ga1 Ga0+ 8 i 0.153 0.347 0 . 1. 0
Ga2 Ga0+ 4 e 0 0 0.25 . 1. 0
Os1 Os0+ 4 f 0.353 0.147 0.25 . 1. 0
