
#(C) 2017 by FIZ Karlsruhe - Leibniz Institute for Information Infrastructure, and the U.S. Secretary of
#Commerce on behalf of the United States.  All rights reserved.
data_635052-ICSD
_database_code_ICSD 635052
_audit_creation_date 2012-08-01
_chemical_name_systematic 'Lead gallium selenide (1/2/4)'
_chemical_formula_structural 'Pb Ga2 Se4'
_chemical_formula_sum 'Ga2 Pb1 Se4'
_chemical_name_structure_type BaGe2Se4
_exptl_crystal_density_diffrn 6.04
_publ_section_title

;
Les composes de type PbGa2Se4: EuM2X4, SrM2X4 et PbM2X4 (avec M= Al, Ga et X=
S, Se)
;
_publ_section_comment 'Cell and Type only determined'
loop_
_citation_id
_citation_journal_full
_citation_year
_citation_journal_volume
_citation_page_first
_citation_page_last
_citation_journal_id_ASTM
primary 'Bulletin de la Societe Chimique de France (Vol=Year)' 1971 1971 747 750
BSCFAS
loop_
_publ_author_name
'Eholie, R.'
'Gorochov, O.'
'Guittard, M.'
'Mazurier, M.A.'
'Flahaut, J.'
_cell_length_a 6.359
_cell_length_b 10.64
_cell_length_c 10.77
_cell_angle_alpha 90.
_cell_angle_beta 90.
_cell_angle_gamma 90.
_cell_volume 728.7
_cell_formula_units_Z 4
_symmetry_space_group_name_H-M 'C c c m'
_symmetry_Int_Tables_number 66
loop_
_symmetry_equiv_pos_site_id
_symmetry_equiv_pos_as_xyz
1 '-x, y, z+1/2'
2 'x, -y, z+1/2'
3 'x, y, -z'
4 '-x, -y, -z'
5 'x, -y, -z+1/2'
6 '-x, y, -z+1/2'
7 '-x, -y, z'
8 'x, y, z'
9 '-x+1/2, y+1/2, z+1/2'
10 'x+1/2, -y+1/2, z+1/2'
11 'x+1/2, y+1/2, -z'
12 '-x+1/2, -y+1/2, -z'
13 'x+1/2, -y+1/2, -z+1/2'
14 '-x+1/2, y+1/2, -z+1/2'
15 '-x+1/2, -y+1/2, z'
16 'x+1/2, y+1/2, z'
loop_
_atom_type_symbol
_atom_type_oxidation_number
Pb2+ 2
Ga3+ 3
Se2- -2
loop_
_atom_site_label
_atom_site_type_symbol
_atom_site_symmetry_multiplicity
_atom_site_Wyckoff_symbol
_atom_site_fract_x
_atom_site_fract_y
_atom_site_fract_z
_atom_site_B_iso_or_equiv
_atom_site_occupancy
_atom_site_attached_hydrogens
Pb1 Pb2+ 4 b 0 0.5 0.25 . 1. 0
Ga1 Ga3+ 8 l 0.009 0.243 0 . 1. 0
Se1 Se2- 8 l 0.23 0.414 0 . 1. 0
Se2 Se2- 8 k 0.25 0.25 0.338 . 1. 0
#End of TTdata_635052-ICSD