
#(C) 2017 by FIZ Karlsruhe - Leibniz Institute for Information Infrastructure, and the U.S. Secretary of
#Commerce on behalf of the United States.  All rights reserved.
data_635274-ICSD
_database_code_ICSD 635274
_audit_creation_date 2012-08-01
_chemical_name_systematic 'Strontium gallium sulfide (1/2/4)'
_chemical_formula_structural 'Sr Ga2 S4'
_chemical_formula_sum 'Ga2 S4 Sr1'
_chemical_name_structure_type BaGe2Se4
_exptl_crystal_density_diffrn 3.63
_publ_section_title 'Alkaline earth metal thiogallates'
_publ_section_comment 'Cell and Type only determined'
loop_
_citation_id
_citation_journal_full
_citation_year
_citation_journal_volume
_citation_page_first
_citation_page_last
_citation_journal_id_ASTM
primary 'Russian Journal of Inorganic Chemistry' 1980 25 515 518 RJICAQ
loop_
_publ_author_name
'Ivanov-Emin, B.N.'
'Ivlieva, V.I.'
'Filatenko, L.A.'
'Sarabiya, M.G.'
'Kaziev, G.Z.'
'Zaitsev, B.E.'
_cell_length_a 6.081(5)
_cell_length_b 10.254(5)
_cell_length_c 10.424(5)
_cell_angle_alpha 90.
_cell_angle_beta 90.
_cell_angle_gamma 90.
_cell_volume 649.98
_cell_formula_units_Z 4
_symmetry_space_group_name_H-M 'C c c m'
_symmetry_Int_Tables_number 66
loop_
_symmetry_equiv_pos_site_id
_symmetry_equiv_pos_as_xyz
1 '-x, y, z+1/2'
2 'x, -y, z+1/2'
3 'x, y, -z'
4 '-x, -y, -z'
5 'x, -y, -z+1/2'
6 '-x, y, -z+1/2'
7 '-x, -y, z'
8 'x, y, z'
9 '-x+1/2, y+1/2, z+1/2'
10 'x+1/2, -y+1/2, z+1/2'
11 'x+1/2, y+1/2, -z'
12 '-x+1/2, -y+1/2, -z'
13 'x+1/2, -y+1/2, -z+1/2'
14 '-x+1/2, y+1/2, -z+1/2'
15 '-x+1/2, -y+1/2, z'
16 'x+1/2, y+1/2, z'
loop_
_atom_type_symbol
_atom_type_oxidation_number
Sr2+ 2
Ga3+ 3
S2- -2
loop_
_atom_site_label
_atom_site_type_symbol
_atom_site_symmetry_multiplicity
_atom_site_Wyckoff_symbol
_atom_site_fract_x
_atom_site_fract_y
_atom_site_fract_z
_atom_site_B_iso_or_equiv
_atom_site_occupancy
_atom_site_attached_hydrogens
Sr1 Sr2+ 4 b 0 0.5 0.25 . 1. 0
Ga1 Ga3+ 8 l 0.009 0.243 0 . 1. 0
S1 S2- 8 l 0.23 0.414 0 . 1. 0
S2 S2- 8 k 0.25 0.25 0.338 . 1. 0
#End of TTdata_635274-ICSD