
#(C) 2017 by FIZ Karlsruhe - Leibniz Institute for Information Infrastructure, and the U.S. Secretary of
#Commerce on behalf of the United States.  All rights reserved.
data_637195-ICSD
_database_code_ICSD 637195
_audit_creation_date 2012-08-01
_chemical_name_systematic 'Niobium germanide (3/1)'
_chemical_formula_structural 'Nb3 Ge'
_chemical_formula_sum 'Ge1 Nb3'
_chemical_name_structure_type Mo5Si3
_exptl_crystal_density_diffrn 8.73
_publ_section_title

;
Pressure and temperature formation of A3 B compounds II. Nb3 Ge, Nb3 Sn, Nb3
Pb, V In and V Pb
;
_publ_section_comment 'Cell and Type only determined'
loop_
_citation_id
_citation_journal_full
_citation_year
_citation_journal_volume
_citation_page_first
_citation_page_last
_citation_journal_id_ASTM
primary 'Journal of the Less-Common Metals' 1974 34 17 24 JCOMAH
loop_
_publ_author_name
'Leger, J.M.'
'Hall, H.T.'
_cell_length_a 10.192(10)
_cell_length_b 10.192(10)
_cell_length_c 5.146(5)
_cell_angle_alpha 90.
_cell_angle_beta 90.
_cell_angle_gamma 90.
_cell_volume 534.55
_cell_formula_units_Z 8
_symmetry_space_group_name_H-M 'I 4/m c m'
_symmetry_Int_Tables_number 140
loop_
_symmetry_equiv_pos_site_id
_symmetry_equiv_pos_as_xyz
1 'y, x, -z+1/2'
2 '-y, -x, -z+1/2'
3 '-y, x, -z'
4 'y, -x, -z'
5 'x, -y, -z+1/2'
6 '-x, y, -z+1/2'
7 'x, y, -z'
8 '-x, -y, -z'
9 '-y, -x, z+1/2'
10 'y, x, z+1/2'
11 'y, -x, z'
12 '-y, x, z'
13 '-x, y, z+1/2'
14 'x, -y, z+1/2'
15 '-x, -y, z'
16 'x, y, z'
17 'y+1/2, x+1/2, -z'
18 '-y+1/2, -x+1/2, -z'
19 '-y+1/2, x+1/2, -z+1/2'
20 'y+1/2, -x+1/2, -z+1/2'
21 'x+1/2, -y+1/2, -z'
22 '-x+1/2, y+1/2, -z'
23 'x+1/2, y+1/2, -z+1/2'
24 '-x+1/2, -y+1/2, -z+1/2'
25 '-y+1/2, -x+1/2, z'
26 'y+1/2, x+1/2, z'
27 'y+1/2, -x+1/2, z+1/2'
28 '-y+1/2, x+1/2, z+1/2'
29 '-x+1/2, y+1/2, z'
30 'x+1/2, -y+1/2, z'
31 '-x+1/2, -y+1/2, z+1/2'
32 'x+1/2, y+1/2, z+1/2'
loop_
_atom_type_symbol
_atom_type_oxidation_number
Nb0+ 0
Ge0+ 0
Nb0+ 0
loop_
_atom_site_label
_atom_site_type_symbol
_atom_site_symmetry_multiplicity
_atom_site_Wyckoff_symbol
_atom_site_fract_x
_atom_site_fract_y
_atom_site_fract_z
_atom_site_B_iso_or_equiv
_atom_site_occupancy
_atom_site_attached_hydrogens
Nb1 Nb0+ 16 k 0.074 0.223 0 . 1. 0
Nb2 Nb0+ 4 b 0 0.5 0.25 . 1. 0
Ge1 Ge0+ 8 h 0.17 0.67 0 . 1. 0
Nb3 Nb0+ 4 a 0 0 0.25 . 1. 0
#End of TTdata_637195-ICSD