
#(C) 2017 by FIZ Karlsruhe - Leibniz Institute for Information Infrastructure, and the U.S. Secretary of
#Commerce on behalf of the United States.  All rights reserved.
data_637438-ICSD
_database_code_ICSD 637438
_audit_creation_date 2010-02-01
_chemical_name_systematic 'Nickel yttrium germanide (1/1/2)'
_chemical_formula_structural 'Ni Y Ge2'
_chemical_formula_sum 'Ge2 Ni1 Y1'
_chemical_name_structure_type BaCuSn2
_exptl_crystal_density_diffrn 7.46
_publ_section_title
'Crystal chemistry of ternary germanides, R M1-x Ge2 (1> x<= 0)'
_publ_section_comment 'Cell and Type only determined'
loop_
_citation_id
_citation_journal_full
_citation_year
_citation_journal_volume
_citation_page_first
_citation_page_last
_citation_journal_id_ASTM
primary 'Journal of Structural Chemistry (USSR) (= Zhurnal Strukturnoi Khimii)'
1989 30 777 782 JSTCAM
loop_
_publ_author_name
'Pecharskii, V.K.'
'Mruz, O.Ya.'
'Konyk, M.B.'
'Salamakha, P.S.'
'Starodub, P.K.'
'Fedyna, M.F.'
'Bodak, O.I.'
_cell_length_a 4.09
_cell_length_b 16.07
_cell_length_c 3.969
_cell_angle_alpha 90.
_cell_angle_beta 90.
_cell_angle_gamma 90.
_cell_volume 260.87
_cell_formula_units_Z 4
_symmetry_space_group_name_H-M 'C m c m'
_symmetry_Int_Tables_number 63
loop_
_symmetry_equiv_pos_site_id
_symmetry_equiv_pos_as_xyz
1 '-x, y, -z+1/2'
2 '-x, -y, z+1/2'
3 '-x, y, z'
4 '-x, -y, -z'
5 'x, -y, z+1/2'
6 'x, y, -z+1/2'
7 'x, -y, -z'
8 'x, y, z'
9 '-x+1/2, y+1/2, -z+1/2'
10 '-x+1/2, -y+1/2, z+1/2'
11 '-x+1/2, y+1/2, z'
12 '-x+1/2, -y+1/2, -z'
13 'x+1/2, -y+1/2, z+1/2'
14 'x+1/2, y+1/2, -z+1/2'
15 'x+1/2, -y+1/2, -z'
16 'x+1/2, y+1/2, z'
loop_
_atom_type_symbol
_atom_type_oxidation_number
Y0+ 0
Ni0+ 0
Ge0+ 0
loop_
_atom_site_label
_atom_site_type_symbol
_atom_site_symmetry_multiplicity
_atom_site_Wyckoff_symbol
_atom_site_fract_x
_atom_site_fract_y
_atom_site_fract_z
_atom_site_B_iso_or_equiv
_atom_site_occupancy
_atom_site_attached_hydrogens
Y1 Y0+ 4 c 0 0.106 .25 . 1. 0
Ni1 Ni0+ 4 c 0 0.321 .25 . 1. 0
Ge1 Ge0+ 4 c 0 0.454 .25 . 1. 0
Ge2 Ge0+ 4 c 0 0.742 .25 . 1. 0
#End of TTdata_637438-ICSD