
#(C) 2017 by FIZ Karlsruhe - Leibniz Institute for Information Infrastructure, and the U.S. Secretary of
#Commerce on behalf of the United States.  All rights reserved.
data_637440-ICSD
_database_code_ICSD 637440
_audit_creation_date 2013-08-01
_chemical_name_systematic 'Nickel yttrium germanide (1/1/1)'
_chemical_formula_structural 'Ni Y Ge'
_chemical_formula_sum 'Ge1 Ni1 Y1'
_chemical_name_structure_type TiNiSi-MgSrSi
_exptl_crystal_density_diffrn 6.86
_publ_section_title

;
Crystal structure of R Ni Ge and R Co Ge compounds (R = Y, Gd, Tb, Dy, Ho, Er,
Tm, Yb, Lu)
;
_publ_section_comment 'Cell and Type only determined'
loop_
_citation_id
_citation_journal_full
_citation_year
_citation_journal_volume
_citation_page_first
_citation_page_last
_citation_journal_id_ASTM
primary 'Ukrains'kii Fizichnii Zhurnal (Ukrainian Edition)' 1984 29 867 871
UFZHAT
loop_
_publ_author_name
'Gorelenko, Yu.K.'
'Starodub, P.K.'
'Bruskov, V.A.'
'Skolozdra, R.V.'
'Jarovec, V.I.'
'Bodak, O.I.'
'Pecharskii, V.K.'
_cell_length_a 6.970(1)
_cell_length_b 4.212(1)
_cell_length_c 7.258(1)
_cell_angle_alpha 90.
_cell_angle_beta 90.
_cell_angle_gamma 90.
_cell_volume 213.08
_cell_formula_units_Z 4
_symmetry_space_group_name_H-M 'P n m a'
_symmetry_Int_Tables_number 62
loop_
_symmetry_equiv_pos_site_id
_symmetry_equiv_pos_as_xyz
1 'x+1/2, y, -z+1/2'
2 'x, -y+1/2, z'
3 '-x+1/2, y+1/2, z+1/2'
4 '-x, -y, -z'
5 '-x+1/2, -y, z+1/2'
6 '-x, y+1/2, -z'
7 'x+1/2, -y+1/2, -z+1/2'
8 'x, y, z'
loop_
_atom_type_symbol
_atom_type_oxidation_number
Ni0+ 0
Y0+ 0
Ge0+ 0
loop_
_atom_site_label
_atom_site_type_symbol
_atom_site_symmetry_multiplicity
_atom_site_Wyckoff_symbol
_atom_site_fract_x
_atom_site_fract_y
_atom_site_fract_z
_atom_site_B_iso_or_equiv
_atom_site_occupancy
_atom_site_attached_hydrogens
Ni1 Ni0+ 4 c 0.846 0.25 0.567 . 1. 0
Y1 Y0+ 4 c 0.008 0.25 0.196 . 1. 0
Ge1 Ge0+ 4 c 0.203 0.25 0.602 . 1. 0
#End of TTdata_637440-ICSD