
#(C) 2017 by FIZ Karlsruhe - Leibniz Institute for Information Infrastructure, and the U.S. Secretary of
#Commerce on behalf of the United States.  All rights reserved.
data_637674-ICSD
_database_code_ICSD 637674
_audit_creation_date 2008-08-01
_audit_update_record 2017-08-01
_chemical_name_systematic 'Germanium rhodium (1/2)'
_chemical_formula_structural 'Ge Rh2'
_chemical_formula_sum 'Ge1 Rh2'
_chemical_name_structure_type TiNiSi-MgSrSi
_exptl_crystal_density_diffrn 11.08
_publ_section_title

;
The rhodium-germanium system I. The crystal structures of Rh2 Ge, Rh5 Ge3 and
Rh Ge
;
loop_
_citation_id
_citation_journal_full
_citation_year
_citation_journal_volume
_citation_page_first
_citation_page_last
_citation_journal_id_ASTM
primary 'Acta Crystallographica (1,1948-23,1967)' 1955 8 15 21 ACCRA9
loop_
_publ_author_name
'Geller, S.'
_cell_length_a 5.44
_cell_length_b 7.57
_cell_length_c 4.
_cell_angle_alpha 90.
_cell_angle_beta 90.
_cell_angle_gamma 90.
_cell_volume 164.72
_cell_formula_units_Z 4
_symmetry_space_group_name_H-M 'P n a m'
_symmetry_Int_Tables_number 62
_refine_ls_R_factor_all 0.118
loop_
_symmetry_equiv_pos_site_id
_symmetry_equiv_pos_as_xyz
1 'x+1/2, -y+1/2, z'
2 'x, y, -z+1/2'
3 '-x+1/2, y+1/2, z+1/2'
4 '-x, -y, -z'
5 '-x+1/2, y+1/2, -z'
6 '-x, -y, z+1/2'
7 'x+1/2, -y+1/2, -z+1/2'
8 'x, y, z'
loop_
_atom_type_symbol
_atom_type_oxidation_number
Ge0+ 0
Rh0+ 0
loop_
_atom_site_label
_atom_site_type_symbol
_atom_site_symmetry_multiplicity
_atom_site_Wyckoff_symbol
_atom_site_fract_x
_atom_site_fract_y
_atom_site_fract_z
_atom_site_B_iso_or_equiv
_atom_site_occupancy
_atom_site_attached_hydrogens
Ge1 Ge0+ 4 c 0.713 0.605 0.25 . 1 0
Rh1 Rh0+ 4 c 0.029 0.207 0.25 . 1 0
Rh2 Rh0+ 4 c 0.163 0.571 0.25 . 1 0
#End of TTdata_637674-ICSD