
data_637646-ICSD
_database_code_ICSD 637646
_audit_creation_date 2012-08-01
_chemical_name_systematic 'Platinum germanium sulfide (1/1/1)'
_chemical_formula_structural 'Pt Ge S'
_chemical_formula_sum 'Ge1 Pt1 S1'
_chemical_name_structure_type PtGeSe
_exptl_crystal_density_diffrn 9.86
_cell_length_a 5.864(9)
_cell_length_b 5.902(9)
_cell_length_c 5.835(9)
_cell_angle_alpha 90.
_cell_angle_beta 90.
_cell_angle_gamma 90.
_cell_volume 201.95
_cell_formula_units_Z 4
_symmetry_space_group_name_H-M 'P c a 21'
_symmetry_Int_Tables_number 29
loop_
_symmetry_equiv_pos_site_id
_symmetry_equiv_pos_as_xyz
1 'x+1/2, -y, z'
2 '-x+1/2, y, z+1/2'
3 '-x, -y, z+1/2'
4 'x, y, z'
loop_
_atom_type_symbol
_atom_type_oxidation_number
Pt4+ 4
Ge3- -3
S1- -1
loop_
_atom_site_label
_atom_site_type_symbol
_atom_site_symmetry_multiplicity
_atom_site_Wyckoff_symbol
_atom_site_fract_x
_atom_site_fract_y
_atom_site_fract_z
_atom_site_B_iso_or_equiv
_atom_site_occupancy
_atom_site_attached_hydrogens
Pt1 Pt4+ 4 a 0.009 0.742 0 . 1. 0
Ge1 Ge3- 4 a 0.383 0.136 0.617 . 1. 0
S1 S1- 4 a 0.62 0.376 0.382 . 1. 0
