
#(C) 2017 by FIZ Karlsruhe - Leibniz Institute for Information Infrastructure, and the U.S. Secretary of
#Commerce on behalf of the United States.  All rights reserved.
data_638005-ICSD
_database_code_ICSD 638005
_audit_creation_date 2010-02-01
_chemical_name_systematic 'Germanium(II) telluride'
_chemical_formula_structural 'Ge Te'
_chemical_formula_sum 'Ge1 Te1'
_chemical_name_structure_type GeS
_exptl_crystal_density_diffrn 6.25
_publ_section_title 'Polymorphism of germanium telluride'
_publ_section_comment 'Cell and Type only determined'
loop_
_citation_id
_citation_journal_full
_citation_year
_citation_journal_volume
_citation_page_first
_citation_page_last
_citation_journal_id_ASTM
primary 'Doklady Chemistry' 1968 182 862 863 DKCHAY
loop_
_publ_author_name
'Karbanov, S.G.'
'Zlomanov, V.P.'
'Novoselova, A.V.'
_cell_length_a 11.76(1)
_cell_length_b 4.15(1)
_cell_length_c 4.36(1)
_cell_angle_alpha 90.
_cell_angle_beta 90.
_cell_angle_gamma 90.
_cell_volume 212.79
_cell_formula_units_Z 4
_symmetry_space_group_name_H-M 'P n m a'
_symmetry_Int_Tables_number 62
loop_
_symmetry_equiv_pos_site_id
_symmetry_equiv_pos_as_xyz
1 'x+1/2, y, -z+1/2'
2 'x, -y+1/2, z'
3 '-x+1/2, y+1/2, z+1/2'
4 '-x, -y, -z'
5 '-x+1/2, -y, z+1/2'
6 '-x, y+1/2, -z'
7 'x+1/2, -y+1/2, -z+1/2'
8 'x, y, z'
loop_
_atom_type_symbol
_atom_type_oxidation_number
Ge2+ 2
Te2- -2
loop_
_atom_site_label
_atom_site_type_symbol
_atom_site_symmetry_multiplicity
_atom_site_Wyckoff_symbol
_atom_site_fract_x
_atom_site_fract_y
_atom_site_fract_z
_atom_site_B_iso_or_equiv
_atom_site_occupancy
_atom_site_attached_hydrogens
Ge1 Ge2+ 4 c 0.12 0.25 .115 . 1. 0
Te1 Te2- 4 c 0.35 0.25 0 . 1. 0
#End of TTdata_638005-ICSD