
#(C) 2017 by FIZ Karlsruhe - Leibniz Institute for Information Infrastructure, and the U.S. Secretary of
#Commerce on behalf of the United States.  All rights reserved.
data_638115-ICSD
_database_code_ICSD 638115
_audit_creation_date 2013-08-01
_chemical_name_systematic 'Tungsten germanide (1/2)'
_chemical_formula_structural 'W Ge2'
_chemical_formula_sum 'Ge2 W1'
_chemical_name_structure_type Co2Si
_exptl_crystal_density_diffrn 11.6
_publ_section_title
'Formation of intermetallic phases in binary systems at high pressure'
_publ_section_comment 'Cell and Type only determined'
loop_
_citation_id
_citation_journal_full
_citation_year
_citation_journal_volume
_citation_page_first
_citation_page_last
_citation_journal_id_ASTM
primary 'Fizika Tekhnika Vysokikh Davlenij' 1983 11 3 12 FTVDDZ
loop_
_publ_author_name
'Popova, S.V.'
_cell_length_a 6.399(3)
_cell_length_b 3.445(1)
_cell_length_c 8.544(3)
_cell_angle_alpha 90.
_cell_angle_beta 90.
_cell_angle_gamma 90.
_cell_volume 188.35
_cell_formula_units_Z 4
_symmetry_space_group_name_H-M 'P n m a'
_symmetry_Int_Tables_number 62
loop_
_symmetry_equiv_pos_site_id
_symmetry_equiv_pos_as_xyz
1 'x+1/2, y, -z+1/2'
2 'x, -y+1/2, z'
3 '-x+1/2, y+1/2, z+1/2'
4 '-x, -y, -z'
5 '-x+1/2, -y, z+1/2'
6 '-x, y+1/2, -z'
7 'x+1/2, -y+1/2, -z+1/2'
8 'x, y, z'
loop_
_atom_type_symbol
_atom_type_oxidation_number
W0+ 0
Ge0+ 0
loop_
_atom_site_label
_atom_site_type_symbol
_atom_site_symmetry_multiplicity
_atom_site_Wyckoff_symbol
_atom_site_fract_x
_atom_site_fract_y
_atom_site_fract_z
_atom_site_B_iso_or_equiv
_atom_site_occupancy
_atom_site_attached_hydrogens
W1 W0+ 4 c 0.25 0.25 0.172 . 1. 0
Ge1 Ge0+ 4 c 0.865 0.25 0.041 . 1. 0
Ge2 Ge0+ 4 c 0.937 0.25 0.632 . 1. 0
#End of TTdata_638115-ICSD