
#(C) 2017 by FIZ Karlsruhe - Leibniz Institute for Information Infrastructure, and the U.S. Secretary of
#Commerce on behalf of the United States.  All rights reserved.
data_640434-ICSD
_database_code_ICSD 640434
_audit_creation_date 2012-08-01
_chemical_name_systematic 'Indium antimonide (5/3)'
_chemical_formula_structural 'In5 Sb3'
_chemical_formula_sum 'In5 Sb3'
_chemical_name_structure_type In5Bi3
_exptl_crystal_density_diffrn 7.27
_publ_section_title

;
Crystal structure and superconductivity of indium-rich In-Bi and In-Sn alloys
after high-pressure treatment
;
_publ_section_comment 'Cell and Type only determined'
loop_
_citation_id
_citation_journal_full
_citation_year
_citation_journal_volume
_citation_page_first
_citation_page_last
_citation_journal_id_ASTM
primary 'Soviet Physics - Solid State (New York)' 1981 23 951 954 SPSSA7
loop_
_publ_author_name
'Degtyareva, V.F.'
'Ivakhnenko, S.A.'
'Ponyatovskii, E.G.'
'Rashchupkin, V.I.'
_cell_length_a 8.34
_cell_length_b 8.34
_cell_length_c 12.34
_cell_angle_alpha 90.
_cell_angle_beta 90.
_cell_angle_gamma 90.
_cell_volume 858.32
_cell_formula_units_Z 4
_symmetry_space_group_name_H-M 'I 4/m c m'
_symmetry_Int_Tables_number 140
loop_
_symmetry_equiv_pos_site_id
_symmetry_equiv_pos_as_xyz
1 'y, x, -z+1/2'
2 '-y, -x, -z+1/2'
3 '-y, x, -z'
4 'y, -x, -z'
5 'x, -y, -z+1/2'
6 '-x, y, -z+1/2'
7 'x, y, -z'
8 '-x, -y, -z'
9 '-y, -x, z+1/2'
10 'y, x, z+1/2'
11 'y, -x, z'
12 '-y, x, z'
13 '-x, y, z+1/2'
14 'x, -y, z+1/2'
15 '-x, -y, z'
16 'x, y, z'
17 'y+1/2, x+1/2, -z'
18 '-y+1/2, -x+1/2, -z'
19 '-y+1/2, x+1/2, -z+1/2'
20 'y+1/2, -x+1/2, -z+1/2'
21 'x+1/2, -y+1/2, -z'
22 '-x+1/2, y+1/2, -z'
23 'x+1/2, y+1/2, -z+1/2'
24 '-x+1/2, -y+1/2, -z+1/2'
25 '-y+1/2, -x+1/2, z'
26 'y+1/2, x+1/2, z'
27 'y+1/2, -x+1/2, z+1/2'
28 '-y+1/2, x+1/2, z+1/2'
29 '-x+1/2, y+1/2, z'
30 'x+1/2, -y+1/2, z'
31 '-x+1/2, -y+1/2, z+1/2'
32 'x+1/2, y+1/2, z+1/2'
loop_
_atom_type_symbol
_atom_type_oxidation_number
In0+ 0
Sb0+ 0
loop_
_atom_site_label
_atom_site_type_symbol
_atom_site_symmetry_multiplicity
_atom_site_Wyckoff_symbol
_atom_site_fract_x
_atom_site_fract_y
_atom_site_fract_z
_atom_site_B_iso_or_equiv
_atom_site_occupancy
_atom_site_attached_hydrogens
In1 In0+ 4 c 0 0 0 . 1. 0
In2 In0+ 16 l 0.165 0.665 0.15 . 1. 0
Sb1 Sb0+ 4 a 0 0 0.25 . 1. 0
Sb2 Sb0+ 8 h 0.375 0.875 0 . 1. 0
#End of TTdata_640434-ICSD