
#(C) 2017 by FIZ Karlsruhe - Leibniz Institute for Information Infrastructure, and the U.S. Secretary of
#Commerce on behalf of the United States.  All rights reserved.
data_640987-ICSD
_database_code_ICSD 640987
_audit_creation_date 2013-08-01
_chemical_name_systematic 'Iridium silicide (4/5)'
_chemical_formula_structural 'Ir4 Si5'
_chemical_formula_sum 'Ir4 Si5'
_chemical_name_structure_type Rh4Si5
_exptl_crystal_density_diffrn 11.72
_publ_section_title 'X-ray studies of silicon-rich iridium silicides'
_publ_section_comment 'Cell and Type only determined'
loop_
_citation_id
_citation_journal_full
_citation_year
_citation_journal_volume
_citation_page_first
_citation_page_last
_citation_journal_id_ASTM
primary 'Acta Chemica Scandinavica (1-27,1973-42,1988)' 1970 24 2109 2116 ACSAA4
loop_
_publ_author_name
'Engstroem, I.'
'Zackrisson, F.'
_cell_length_a 12.359(27)
_cell_length_b 3.6181(14)
_cell_length_c 5.8805(14)
_cell_angle_alpha 90.
_cell_angle_beta 100.14
_cell_angle_gamma 90.
_cell_volume 258.85
_cell_formula_units_Z 2
_symmetry_space_group_name_H-M 'P 1 21/m 1'
_symmetry_Int_Tables_number 11
loop_
_symmetry_equiv_pos_site_id
_symmetry_equiv_pos_as_xyz
1 'x, -y+1/2, z'
2 '-x, -y, -z'
3 '-x, y+1/2, -z'
4 'x, y, z'
loop_
_atom_type_symbol
_atom_type_oxidation_number
Ir0+ 0
Si0+ 0
loop_
_atom_site_label
_atom_site_type_symbol
_atom_site_symmetry_multiplicity
_atom_site_Wyckoff_symbol
_atom_site_fract_x
_atom_site_fract_y
_atom_site_fract_z
_atom_site_B_iso_or_equiv
_atom_site_occupancy
_atom_site_attached_hydrogens
Ir1 Ir0+ 2 e 0.05 0.25 0.206 . 1. 0
Ir2 Ir0+ 2 e 0.274 0.25 0.108 . 1. 0
Ir3 Ir0+ 2 e 0.501 0.25 0.301 . 1. 0
Ir4 Ir0+ 2 e 0.73 0.25 0.284 . 1. 0
Si1 Si0+ 2 e 0.636 0.25 0.64 . 1. 0
Si2 Si0+ 2 e 0.422 0.25 0.893 . 1. 0
Si3 Si0+ 2 e 0.224 0.25 0.467 . 1. 0
Si4 Si0+ 2 e 0.142 0.75 0.981 . 1. 0
Si5 Si0+ 2 e 0.922 0.25 0.485 . 1. 0
#End of TTdata_640987-ICSD