
#(C) 2017 by FIZ Karlsruhe - Leibniz Institute for Information Infrastructure, and the U.S. Secretary of
#Commerce on behalf of the United States.  All rights reserved.
data_641610-ICSD
_database_code_ICSD 641610
_audit_creation_date 2012-08-01
_chemical_name_systematic 'Lanthanum osmium (3/1)'
_chemical_formula_structural 'La3 Os'
_chemical_formula_sum 'La3 Os1'
_chemical_name_structure_type Cementite-Fe3C
_exptl_crystal_density_diffrn 8.18
_publ_section_title
'The crystal structure of the rare-earth-rich osmium compounds R3 Os and Y3 Os'
_publ_section_comment 'Cell and Type only determined'
loop_
_citation_id
_citation_journal_full
_citation_year
_citation_journal_volume
_citation_page_first
_citation_page_last
_citation_journal_id_ASTM
primary 'Journal of the Less-Common Metals' 1980 72 P21 P24 JCOMAH
loop_
_publ_author_name
'Palenzona, A.'
_cell_length_a 7.49
_cell_length_b 9.953
_cell_length_c 6.612
_cell_angle_alpha 90.
_cell_angle_beta 90.
_cell_angle_gamma 90.
_cell_volume 492.91
_cell_formula_units_Z 4
_symmetry_space_group_name_H-M 'P n m a'
_symmetry_Int_Tables_number 62
loop_
_symmetry_equiv_pos_site_id
_symmetry_equiv_pos_as_xyz
1 'x+1/2, y, -z+1/2'
2 'x, -y+1/2, z'
3 '-x+1/2, y+1/2, z+1/2'
4 '-x, -y, -z'
5 '-x+1/2, -y, z+1/2'
6 '-x, y+1/2, -z'
7 'x+1/2, -y+1/2, -z+1/2'
8 'x, y, z'
loop_
_atom_type_symbol
_atom_type_oxidation_number
La0+ 0
Os0+ 0
loop_
_atom_site_label
_atom_site_type_symbol
_atom_site_symmetry_multiplicity
_atom_site_Wyckoff_symbol
_atom_site_fract_x
_atom_site_fract_y
_atom_site_fract_z
_atom_site_B_iso_or_equiv
_atom_site_occupancy
_atom_site_attached_hydrogens
La1 La0+ 8 d 0.172 0.065 0.168 . 1. 0
La2 La0+ 4 c 0.047 0.25 0.648 . 1. 0
Os1 Os0+ 4 c 0.37 0.25 0.467 . 1. 0
#End of TTdata_641610-ICSD