
#(C) 2017 by FIZ Karlsruhe - Leibniz Institute for Information Infrastructure, and the U.S. Secretary of
#Commerce on behalf of the United States.  All rights reserved.
data_641751-ICSD
_database_code_ICSD 641751
_audit_creation_date 2012-08-01
_audit_update_record 2017-08-01
_chemical_name_systematic 'Lanthanum rhodium silicide (2/1/3)'
_chemical_formula_structural 'La2 Rh Si3'
_chemical_formula_sum 'La2 Rh1 Si3'
_chemical_name_structure_type Er2RhSi3
_exptl_crystal_density_diffrn 6.1
_publ_section_title

;
A new family of rare earth compounds, the ternary silicides RE2RhSi3 (RE = Y,
La, Ce, Nd, Sm, Gd, Tb, Dy, Ho, Er) - crystal structure electrical and
magnetic properties
;
_publ_section_comment 'Cell and Type only determined'
loop_
_citation_id
_citation_journal_full
_citation_year
_citation_journal_volume
_citation_page_first
_citation_page_last
_citation_journal_id_ASTM
primary 'Solid State Communications' 1984 49 753 760 SSCOA4
loop_
_publ_author_name
'Chevalier, B.'
'Lejay, P.'
'Etourneau, J.'
'Hagenmuller, P.'
_cell_length_a 8.233(5)
_cell_length_b 8.233(5)
_cell_length_c 8.594(5)
_cell_angle_alpha 90.
_cell_angle_beta 90.
_cell_angle_gamma 120.
_cell_volume 504.48
_cell_formula_units_Z 4
_symmetry_space_group_name_H-M 'P 63/m m c'
_symmetry_Int_Tables_number 194
loop_
_symmetry_equiv_pos_site_id
_symmetry_equiv_pos_as_xyz
1 'x, x-y, -z+1/2'
2 '-x+y, y, -z+1/2'
3 '-y, -x, -z+1/2'
4 '-x+y, -x, -z+1/2'
5 '-y, x-y, -z+1/2'
6 'x, y, -z+1/2'
7 '-x, -x+y, z+1/2'
8 'x-y, -y, z+1/2'
9 'y, x, z+1/2'
10 'x-y, x, z+1/2'
11 'y, -x+y, z+1/2'
12 '-x, -y, z+1/2'
13 '-x, -x+y, -z'
14 'x-y, -y, -z'
15 'y, x, -z'
16 'x-y, x, -z'
17 'y, -x+y, -z'
18 '-x, -y, -z'
19 'x, x-y, z'
20 '-x+y, y, z'
21 '-y, -x, z'
22 '-x+y, -x, z'
23 '-y, x-y, z'
24 'x, y, z'
loop_
_atom_type_symbol
_atom_type_oxidation_number
La0+ 0
Rh0+ 0
Si0+ 0
loop_
_atom_site_label
_atom_site_type_symbol
_atom_site_symmetry_multiplicity
_atom_site_Wyckoff_symbol
_atom_site_fract_x
_atom_site_fract_y
_atom_site_fract_z
_atom_site_B_iso_or_equiv
_atom_site_occupancy
_atom_site_attached_hydrogens
La1 La0+ 2 b 0 0 0.25 . 1. 0
La2 La0+ 6 h 0.523 0.046 0.25 . 1. 0
Rh1 Rh0+ 4 f 0.3333 0.6667 0.05 . 1. 0
Si1 Si0+ 12 k 0.167 0.334 0.01 . 1. 0
#End of TTdata_641751-ICSD