
#(C) 2017 by FIZ Karlsruhe - Leibniz Institute for Information Infrastructure, and the U.S. Secretary of
#Commerce on behalf of the United States.  All rights reserved.
data_641757-ICSD
_database_code_ICSD 641757
_audit_creation_date 2012-08-01
_chemical_name_systematic 'Lanthanum rhodium stannide (1/2/4)'
_chemical_formula_structural 'La Rh2 Sn4'
_chemical_formula_sum 'La1 Rh2 Sn4'
_chemical_name_structure_type NdRh2Sn4
_exptl_crystal_density_diffrn 8.8
_publ_section_title

;
De nouveaux stannures ternaires de rhodium et d'elements des terrres rares:
TR1+x Rh2 Sn4-x, 0 = x = 0.5, TR = La- Sm
;
_publ_section_comment 'Cell and Type only determined'
loop_
_citation_id
_citation_journal_full
_citation_year
_citation_journal_volume
_citation_page_first
_citation_page_last
_citation_journal_id_ASTM
primary 'Materials Research Bulletin' 1985 20 913 919 MRBUAC
loop_
_publ_author_name
'Meot-Meyer, M.'
'Venturini, G.'
'Malaman, B.'
'Roques, B.'
_cell_length_a 18.692(7)
_cell_length_b 4.536(3)
_cell_length_c 7.259(4)
_cell_angle_alpha 90.
_cell_angle_beta 90.
_cell_angle_gamma 90.
_cell_volume 615.47
_cell_formula_units_Z 4
_symmetry_space_group_name_H-M 'P n m a'
_symmetry_Int_Tables_number 62
loop_
_symmetry_equiv_pos_site_id
_symmetry_equiv_pos_as_xyz
1 'x+1/2, y, -z+1/2'
2 'x, -y+1/2, z'
3 '-x+1/2, y+1/2, z+1/2'
4 '-x, -y, -z'
5 '-x+1/2, -y, z+1/2'
6 '-x, y+1/2, -z'
7 'x+1/2, -y+1/2, -z+1/2'
8 'x, y, z'
loop_
_atom_type_symbol
_atom_type_oxidation_number
La2+ 2
Rh3+ 3
Sn2- -2
loop_
_atom_site_label
_atom_site_type_symbol
_atom_site_symmetry_multiplicity
_atom_site_Wyckoff_symbol
_atom_site_fract_x
_atom_site_fract_y
_atom_site_fract_z
_atom_site_B_iso_or_equiv
_atom_site_occupancy
_atom_site_attached_hydrogens
La1 La2+ 4 c 0.357 0.25 0.502 . 1. 0
Rh1 Rh3+ 4 c 0.538 0.25 0.26 . 1. 0
Rh2 Rh3+ 4 c 0.783 0.25 0.482 . 1. 0
Sn1 Sn2- 4 c 0.682 0.25 0.196 . 1. 0
Sn2 Sn2- 4 c 0.694 0.25 0.779 . 1. 0
Sn3 Sn2- 4 c 0.532 0.25 0.638 . 1. 0
Sn4 Sn2- 4 c 0.432 0.25 0.989 . 1. 0
#End of TTdata_641757-ICSD