
#(C) 2017 by FIZ Karlsruhe - Leibniz Institute for Information Infrastructure, and the U.S. Secretary of
#Commerce on behalf of the United States.  All rights reserved.
data_641821-ICSD
_database_code_ICSD 641821
_audit_creation_date 2013-08-01
_chemical_name_systematic 'Lanthanum disulfide - alpha'
_chemical_formula_structural 'La S2'
_chemical_formula_sum 'La1 S2'
_exptl_crystal_density_diffrn 5.03
_publ_section_title 'Dimorphisme et structure du disulfure de lanthane La S2'
_publ_section_comment 'Cell and Type only determined'
loop_
_citation_id
_citation_journal_full
_citation_year
_citation_journal_volume
_citation_page_first
_citation_page_last
_citation_journal_id_ASTM
primary 'Journal of Solid State Chemistry' 1981 37 44 * JSSCBI
loop_
_publ_author_name
'Benazeth, S.'
'Guittard, M.'
'Flahaut, J.'
_cell_length_a 8.18
_cell_length_b 8.13
_cell_length_c 4.03
_cell_angle_alpha 90.
_cell_angle_beta 90.
_cell_angle_gamma 90.
_cell_volume 268.01
_cell_formula_units_Z 4
_symmetry_space_group_name_H-M 'P 1 1 21/a'
_symmetry_Int_Tables_number 14
loop_
_symmetry_equiv_pos_site_id
_symmetry_equiv_pos_as_xyz
1 'x+1/2, y, -z+1/2'
2 '-x, -y, -z'
3 '-x+1/2, -y, z+1/2'
4 'x, y, z'
loop_
_atom_type_symbol
_atom_type_oxidation_number
La3+ 3
S1- -1
S2- -2
loop_
_atom_site_label
_atom_site_type_symbol
_atom_site_symmetry_multiplicity
_atom_site_Wyckoff_symbol
_atom_site_fract_x
_atom_site_fract_y
_atom_site_fract_z
_atom_site_B_iso_or_equiv
_atom_site_occupancy
_atom_site_attached_hydrogens
La1 La3+ 4 e 0.13 0.276 0.212 . 1. 0
S1 S1- 4 e 0.393 -.002 0.156 . 1. 0
S2 S2- 4 e 0.126 0.634 0.238 . 1. 0
#End of TTdata_641821-ICSD