
#(C) 2017 by FIZ Karlsruhe - Leibniz Institute for Information Infrastructure, and the U.S. Secretary of
#Commerce on behalf of the United States.  All rights reserved.
data_643093-ICSD
_database_code_ICSD 643093
_audit_creation_date 2013-08-01
_chemical_name_systematic 'Manganese nickel phosphide (1/1/1)'
_chemical_formula_structural 'Mn Ni P'
_chemical_formula_sum 'Mn1 Ni1 P1'
_chemical_name_structure_type TiNiSi-MgSrSi
_exptl_crystal_density_diffrn 6.65
_publ_section_title

;
Les proprietes cristallographiques et magnetiques des solutions solides entre
les phosphures Ni2 P - Co2 P - Fe2 P - Mn2 P et Cr2 P
;
_publ_section_comment 'Cell and Type only determined'
loop_
_citation_id
_citation_journal_full
_citation_year
_citation_journal_volume
_citation_page_first
_citation_page_last
_citation_journal_id_ASTM
primary 'Annales de Chimie (Paris) (Vol=Year)' 1969 4 79 91 ANCPAC
loop_
_publ_author_name
'Roger, A.'
'Senateur, J.P.'
'Fruchart, R.'
_cell_length_a 5.95
_cell_length_b 3.557
_cell_length_c 6.828
_cell_angle_alpha 90.
_cell_angle_beta 90.
_cell_angle_gamma 90.
_cell_volume 144.51
_cell_formula_units_Z 4
_symmetry_space_group_name_H-M 'P n m a'
_symmetry_Int_Tables_number 62
loop_
_symmetry_equiv_pos_site_id
_symmetry_equiv_pos_as_xyz
1 'x+1/2, y, -z+1/2'
2 'x, -y+1/2, z'
3 '-x+1/2, y+1/2, z+1/2'
4 '-x, -y, -z'
5 '-x+1/2, -y, z+1/2'
6 '-x, y+1/2, -z'
7 'x+1/2, -y+1/2, -z+1/2'
8 'x, y, z'
loop_
_atom_type_symbol
_atom_type_oxidation_number
Ni0+ 0
Mn0+ 0
P0+ 0
loop_
_atom_site_label
_atom_site_type_symbol
_atom_site_symmetry_multiplicity
_atom_site_Wyckoff_symbol
_atom_site_fract_x
_atom_site_fract_y
_atom_site_fract_z
_atom_site_B_iso_or_equiv
_atom_site_occupancy
_atom_site_attached_hydrogens
Ni1 Ni0+ 4 c 0.14 0.25 0.438 . 1. 0
Mn1 Mn0+ 4 c 0.031 0.25 0.838 . 1. 0
P1 P0+ 4 c 0.782 0.25 0.368 . 1. 0
#End of TTdata_643093-ICSD