
data_643223-ICSD
_database_code_ICSD 643223
_audit_creation_date 2008-07-07
_audit_update_record 2012-02-01
_chemical_name_systematic 'Manganese phosphide (2/1)'
_chemical_formula_structural 'Mn2 P'
_chemical_formula_sum 'Mn2 P1'
_chemical_name_structure_type Mn2P
_exptl_crystal_density_diffrn 6.34
_cell_length_a 6.082
_cell_length_b 6.082
_cell_length_c 3.457
_cell_angle_alpha 90.
_cell_angle_beta 90.
_cell_angle_gamma 120.
_cell_volume 110.74
_cell_formula_units_Z 3
_symmetry_space_group_name_H-M 'P 3 2 1'
_symmetry_Int_Tables_number 150
loop_
_symmetry_equiv_pos_site_id
_symmetry_equiv_pos_as_xyz
1 'x-y, -y, -z'
2 '-x, -x+y, -z'
3 'y, x, -z'
4 '-x+y, -x, z'
5 '-y, x-y, z'
6 'x, y, z'
loop_
_atom_type_symbol
_atom_type_oxidation_number
Mn0+ 0
P0+ 0
loop_
_atom_site_label
_atom_site_type_symbol
_atom_site_symmetry_multiplicity
_atom_site_Wyckoff_symbol
_atom_site_fract_x
_atom_site_fract_y
_atom_site_fract_z
_atom_site_B_iso_or_equiv
_atom_site_occupancy
_atom_site_attached_hydrogens
Mn1 Mn0+ 3 e 0.74 0 0 . 1. 0
Mn2 Mn0+ 3 f 0.4 0 0.5 . 1. 0
P1 P0+ 1 b 0 0 0.5 . 1. 0
P2 P0+ 2 d 0.3333 0.6667 0.125 . 1. 0
