
#(C) 2017 by FIZ Karlsruhe - Leibniz Institute for Information Infrastructure, and the U.S. Secretary of
#Commerce on behalf of the United States.  All rights reserved.
data_644175-ICSD
_database_code_ICSD 644175
_audit_creation_date 2012-08-01
_chemical_name_systematic 'Rubidium molybdenum sulfide (1/3/3)'
_chemical_formula_structural 'Rb Mo3 S3'
_chemical_formula_sum 'Mo3 Rb1 S3'
_chemical_name_structure_type Fe3TlTe3
_exptl_crystal_density_diffrn 5.21
_publ_section_title

;
New pseudo-one-dimensional metals: M2 Mo6 Se6 (M = Na, In, K, Tl), M2 Mo6 S6
(M = K, Rb, Cs), M2 Mo6 Te6 (M = In, Tl)
;
_publ_section_comment 'Cell and Type only determined'
loop_
_citation_id
_citation_journal_full
_citation_year
_citation_journal_volume
_citation_page_first
_citation_page_last
_citation_journal_id_ASTM
primary 'Journal of Solid State Chemistry' 1980 35 286 290 JSSCBI
loop_
_publ_author_name
'Potel, M.'
'Chevrel, R.'
'Sergent, M.'
'Armici, J.C.'
'Decroux, M.'
'Fischer, O.'
_cell_length_a 8.82(1)
_cell_length_b 8.82(1)
_cell_length_c 4.44(1)
_cell_angle_alpha 90.
_cell_angle_beta 90.
_cell_angle_gamma 120.
_cell_volume 299.12
_cell_formula_units_Z 2
_symmetry_space_group_name_H-M 'P 63/m'
_symmetry_Int_Tables_number 176
loop_
_symmetry_equiv_pos_site_id
_symmetry_equiv_pos_as_xyz
1 '-x+y, -x, -z+1/2'
2 '-y, x-y, -z+1/2'
3 'x, y, -z+1/2'
4 'x-y, x, -z'
5 'y, -x+y, -z'
6 '-x, -y, -z'
7 'x-y, x, z+1/2'
8 'y, -x+y, z+1/2'
9 '-x, -y, z+1/2'
10 '-x+y, -x, z'
11 '-y, x-y, z'
12 'x, y, z'
loop_
_atom_type_symbol
_atom_type_oxidation_number
Rb1+ 1
Mo1+ 1.67
S2- -2
loop_
_atom_site_label
_atom_site_type_symbol
_atom_site_symmetry_multiplicity
_atom_site_Wyckoff_symbol
_atom_site_fract_x
_atom_site_fract_y
_atom_site_fract_z
_atom_site_B_iso_or_equiv
_atom_site_occupancy
_atom_site_attached_hydrogens
Rb1 Rb1+ 2 c 0.3333 0.6667 0.25 . 1. 0
Mo1 Mo1+ 6 h 0.18 0.155 0.25 . 1. 0
S1 S2- 6 h 0.056 0.346 0.25 . 1. 0
#End of TTdata_644175-ICSD