
#(C) 2017 by FIZ Karlsruhe - Leibniz Institute for Information Infrastructure, and the U.S. Secretary of
#Commerce on behalf of the United States.  All rights reserved.
data_644846-ICSD
_database_code_ICSD 644846
_audit_creation_date 2013-08-01
_chemical_name_systematic 'Vanadium nitride (8/1)'
_chemical_formula_structural 'V8 N'
_chemical_formula_sum 'N1 V8'
_chemical_name_structure_type V32N3
_exptl_crystal_density_diffrn 6.03
_publ_section_title 'Vanadium nitride (8/1)**'
_publ_section_comment 'Cell and Type only determined'
loop_
_citation_id
_citation_journal_full
_citation_year
_citation_journal_volume
_citation_page_first
_citation_page_last
_citation_journal_id_ASTM
primary 'Fizika Metallov i Metallovedenie' 1978 45 84 * FMMTAK
loop_
_publ_author_name
'Galkin, L.N.'
'Vavilova, V.V.'
'Fykin, L.E.'
_cell_length_a 8.8
_cell_length_b 8.8
_cell_length_c 3.
_cell_angle_alpha 90.
_cell_angle_beta 90.
_cell_angle_gamma 90.
_cell_volume 232.32
_cell_formula_units_Z 2
_symmetry_space_group_name_H-M 'P 42/m n m'
_symmetry_Int_Tables_number 136
loop_
_symmetry_equiv_pos_site_id
_symmetry_equiv_pos_as_xyz
1 '-y+1/2, x+1/2, -z+1/2'
2 'y+1/2, -x+1/2, -z+1/2'
3 'y, x, -z'
4 '-y, -x, -z'
5 'y+1/2, -x+1/2, z+1/2'
6 '-y+1/2, x+1/2, z+1/2'
7 '-y, -x, z'
8 'y, x, z'
9 'x+1/2, -y+1/2, -z+1/2'
10 '-x+1/2, y+1/2, -z+1/2'
11 'x, y, -z'
12 '-x, -y, -z'
13 '-x+1/2, y+1/2, z+1/2'
14 'x+1/2, -y+1/2, z+1/2'
15 '-x, -y, z'
16 'x, y, z'
loop_
_atom_type_symbol
_atom_type_oxidation_number
V0+ 0
N0+ 0
loop_
_atom_site_label
_atom_site_type_symbol
_atom_site_symmetry_multiplicity
_atom_site_Wyckoff_symbol
_atom_site_fract_x
_atom_site_fract_y
_atom_site_fract_z
_atom_site_B_iso_or_equiv
_atom_site_occupancy
_atom_site_attached_hydrogens
V1 V0+ 4 f 0.155 0.155 0 . 1. 0
V2 V0+ 4 f 0.613 0.613 0 . 1. 0
V3 V0+ 8 i 0.625 0.112 0 . 1. 0
N1 N0+ 2 a 0 0 0 . 1. 0
#End of TTdata_644846-ICSD