
#(C) 2017 by FIZ Karlsruhe - Leibniz Institute for Information Infrastructure, and the U.S. Secretary of
#Commerce on behalf of the United States.  All rights reserved.
data_645087-ICSD
_database_code_ICSD 645087
_audit_creation_date 2013-08-01
_chemical_name_systematic 'Niobium nickel phosphide (5/4/4)'
_chemical_formula_structural 'Nb5 Ni4 P4'
_chemical_formula_sum 'Nb5 Ni4 P4'
_chemical_name_structure_type Nb5Cu4Si4
_exptl_crystal_density_diffrn 7.87
_publ_section_title 'New ternary phosphides of the Nb5 Cu4 Si4 type'
_publ_section_comment 'Cell and Type only determined'
loop_
_citation_id
_citation_journal_full
_citation_year
_citation_journal_volume
_citation_page_first
_citation_page_last
_citation_journal_id_ASTM
primary 'Acta Chemica Scandinavica, Series A: (28,1974-)' 1980 34 77 77 ACAPCT
loop_
_publ_author_name
'Berger, R.'
'Phavanantha, P.'
'Mogkolsuk, M.'
_cell_length_a 9.9288(3)
_cell_length_b 9.9288(3)
_cell_length_c 3.5238(2)
_cell_angle_alpha 90.
_cell_angle_beta 90.
_cell_angle_gamma 90.
_cell_volume 347.38
_cell_formula_units_Z 2
_symmetry_space_group_name_H-M 'I 4/m'
_symmetry_Int_Tables_number 87
loop_
_symmetry_equiv_pos_site_id
_symmetry_equiv_pos_as_xyz
1 '-y, x, -z'
2 'y, -x, -z'
3 'x, y, -z'
4 '-x, -y, -z'
5 'y, -x, z'
6 '-y, x, z'
7 '-x, -y, z'
8 'x, y, z'
9 '-y+1/2, x+1/2, -z+1/2'
10 'y+1/2, -x+1/2, -z+1/2'
11 'x+1/2, y+1/2, -z+1/2'
12 '-x+1/2, -y+1/2, -z+1/2'
13 'y+1/2, -x+1/2, z+1/2'
14 '-y+1/2, x+1/2, z+1/2'
15 '-x+1/2, -y+1/2, z+1/2'
16 'x+1/2, y+1/2, z+1/2'
loop_
_atom_type_symbol
_atom_type_oxidation_number
Nb0+ 0
Ni0+ 0
P0+ 0
loop_
_atom_site_label
_atom_site_type_symbol
_atom_site_symmetry_multiplicity
_atom_site_Wyckoff_symbol
_atom_site_fract_x
_atom_site_fract_y
_atom_site_fract_z
_atom_site_B_iso_or_equiv
_atom_site_occupancy
_atom_site_attached_hydrogens
Nb1 Nb0+ 8 h 0.196 0.127 0 . 1. 0
Nb2 Nb0+ 2 b 0 0 0.5 . 1. 0
Ni1 Ni0+ 8 h 0.082 0.397 0 . 1. 0
P1 P0+ 8 h 0.44 0.248 0 . 1. 0
#End of TTdata_645087-ICSD