
#(C) 2017 by FIZ Karlsruhe - Leibniz Institute for Information Infrastructure, and the U.S. Secretary of
#Commerce on behalf of the United States.  All rights reserved.
data_646155-ICSD
_database_code_ICSD 646155
_audit_creation_date 2013-08-01
_chemical_name_systematic 'Nickel tantalum phosphide (1/1/1)'
_chemical_formula_structural 'Ni Ta P'
_chemical_formula_sum 'Ni1 P1 Ta1'
_chemical_name_structure_type TiNiSi-MgSrSi
_exptl_crystal_density_diffrn 11.81
_publ_section_title 'The crystal structure of Zr Fe P and related compounds'
_publ_section_comment 'Cell and Type only determined'
loop_
_citation_id
_citation_journal_full
_citation_year
_citation_journal_volume
_citation_page_first
_citation_page_last
_citation_journal_id_ASTM
primary 'Acta Chemica Scandinavica (1-27,1973-42,1988)' 1966 20 2250 2254 ACSAA4
loop_
_publ_author_name
'Rundqvist, S.'
'Nawapong, P.C.'
_cell_length_a 6.058
_cell_length_b 3.566
_cell_length_c 7.046
_cell_angle_alpha 90.
_cell_angle_beta 90.
_cell_angle_gamma 90.
_cell_volume 152.21
_cell_formula_units_Z 4
_symmetry_space_group_name_H-M 'P n m a'
_symmetry_Int_Tables_number 62
loop_
_symmetry_equiv_pos_site_id
_symmetry_equiv_pos_as_xyz
1 'x+1/2, y, -z+1/2'
2 'x, -y+1/2, z'
3 '-x+1/2, y+1/2, z+1/2'
4 '-x, -y, -z'
5 '-x+1/2, -y, z+1/2'
6 '-x, y+1/2, -z'
7 'x+1/2, -y+1/2, -z+1/2'
8 'x, y, z'
loop_
_atom_type_symbol
_atom_type_oxidation_number
Ni2+ 2
Ta1+ 1
P3- -3
loop_
_atom_site_label
_atom_site_type_symbol
_atom_site_symmetry_multiplicity
_atom_site_Wyckoff_symbol
_atom_site_fract_x
_atom_site_fract_y
_atom_site_fract_z
_atom_site_B_iso_or_equiv
_atom_site_occupancy
_atom_site_attached_hydrogens
Ni1 Ni2+ 4 c 0.144 0.25 0.562 . 1. 0
Ta1 Ta1+ 4 c 0.024 0.25 0.175 . 1. 0
P1 P3- 4 c 0.269 0.25 0.876 . 1. 0
#End of TTdata_646155-ICSD