
#(C) 2017 by FIZ Karlsruhe - Leibniz Institute for Information Infrastructure.  All rights reserved.
data_64639-ICSD
_database_code_ICSD 64639
_audit_creation_date 1989-06-19
_audit_update_record 1990-05-24
_chemical_name_systematic 'Lanthanum dibarium dicopper tantalate'
_chemical_formula_structural 'La Ba2 Cu2 Ta O8'
_chemical_formula_sum 'Ba2 Cu2 La1 O8 Ta1'
_chemical_name_structure_type YBa2Cu3O7+x(tet)
_exptl_crystal_density_diffrn 7.44
_publ_section_title 'Cation ordering in La Ba2 Cu2 Ta O8+y'
loop_
_citation_id
_citation_journal_full
_citation_year
_citation_journal_volume
_citation_page_first
_citation_page_last
_citation_journal_id_ASTM
primary 'Japanese Journal of Applied Physics, Part 2' 1988 27 1623 1625 JAPLD8
loop_
_publ_author_name
'Murayama, N.'
'Sudo, E.'
'Kani, K.'
'Tsuzuki, A.'
'Kawakami, S.'
'Awano, M.'
'Torii, Y.'
_cell_length_a 3.9674(2)
_cell_length_b 3.9674(2)
_cell_length_c 12.052(1)
_cell_angle_alpha 90.
_cell_angle_beta 90.
_cell_angle_gamma 90.
_cell_volume 189.7
_cell_formula_units_Z 1
_symmetry_space_group_name_H-M 'P 4/m m m'
_symmetry_Int_Tables_number 123
_refine_ls_R_factor_all 0.0934
loop_
_symmetry_equiv_pos_site_id
_symmetry_equiv_pos_as_xyz
1 'y, x, -z'
2 '-y, -x, -z'
3 '-y, x, -z'
4 'y, -x, -z'
5 '-x, y, -z'
6 'x, -y, -z'
7 'x, y, -z'
8 '-x, -y, -z'
9 '-y, -x, z'
10 'y, x, z'
11 'y, -x, z'
12 '-y, x, z'
13 'x, -y, z'
14 '-x, y, z'
15 '-x, -y, z'
16 'x, y, z'
loop_
_atom_type_symbol
_atom_type_oxidation_number
Ba2+ 2
La3+ 3
Ta5+ 5
Cu2+ 2
O2- -2
loop_
_atom_site_label
_atom_site_type_symbol
_atom_site_symmetry_multiplicity
_atom_site_Wyckoff_symbol
_atom_site_fract_x
_atom_site_fract_y
_atom_site_fract_z
_atom_site_B_iso_or_equiv
_atom_site_occupancy
_atom_site_attached_hydrogens
Ba1 Ba2+ 2 h 0.5 0.5 0.197 0.6 1. 0
La1 La3+ 1 d 0.5 0.5 0.5 0.6 1. 0
Ta1 Ta5+ 1 a 0 0 0 0.8 1. 0
Cu1 Cu2+ 2 g 0 0 0.349 1.2 1. 0
O1 O2- 2 g 0 0 0.201 1.2 1. 0
O2 O2- 2 f 0.5 0 0 1.2 1. 0
O3 O2- 4 i 0 0.5 0.359 1.2 1. 0
#End of TTdata_64639-ICSD