
data_646531-ICSD
_database_code_ICSD 646531
_audit_creation_date 2008-07-07
_audit_update_record 2017-08-01
_chemical_name_systematic 'Nickel selenide (3/2)'
_chemical_formula_structural 'Ni3 Se2'
_chemical_formula_sum 'Ni3 Se2'
_chemical_name_structure_type Ni3S2
_exptl_crystal_density_diffrn 7.28
_cell_length_a 4.24
_cell_length_b 4.24
_cell_length_c 4.24
_cell_angle_alpha 90.64
_cell_angle_beta 90.64
_cell_angle_gamma 90.64
_cell_volume 76.21
_cell_formula_units_Z 1
_symmetry_space_group_name_H-M 'R 3 2 R'
_symmetry_Int_Tables_number 155
loop_
_symmetry_equiv_pos_site_id
_symmetry_equiv_pos_as_xyz
1 '-z, -y, -x'
2 'z, x, y'
3 '-x, -z, -y'
4 'y, z, x'
5 '-y, -x, -z'
6 'x, y, z'
loop_
_atom_type_symbol
_atom_type_oxidation_number
Ni0+ 0
Se0+ 0
loop_
_atom_site_label
_atom_site_type_symbol
_atom_site_symmetry_multiplicity
_atom_site_Wyckoff_symbol
_atom_site_fract_x
_atom_site_fract_y
_atom_site_fract_z
_atom_site_B_iso_or_equiv
_atom_site_occupancy
_atom_site_attached_hydrogens
Ni1 Ni0+ 3 e 0.5 0.25 0.75 . 1. 0
Se1 Se0+ 2 c 0.25 0.25 0.25 . 1. 0
