
data_64721-ICSD
_database_code_ICSD 64721
_audit_creation_date 1997-11-10
_chemical_name_systematic 'Copper(I) tetrathioantimonate'
_chemical_formula_structural 'Cu3 (Sb S4)'
_chemical_formula_sum 'Cu3 S4 Sb1'
_chemical_name_structure_type Stannite-Cu2FeSnS4
_chemical_name_mineral Famatinite
_exptl_crystal_density_diffrn 4.7
_cell_length_a 5.38
_cell_length_b 5.38
_cell_length_c 10.76
_cell_angle_alpha 90.
_cell_angle_beta 90.
_cell_angle_gamma 90.
_cell_volume 311.44
_cell_formula_units_Z 2
_symmetry_space_group_name_H-M 'I -4 2 m'
_symmetry_Int_Tables_number 121
loop_
_symmetry_equiv_pos_site_id
_symmetry_equiv_pos_as_xyz
1 '-y, -x, z'
2 'y, x, z'
3 'y, -x, -z'
4 '-y, x, -z'
5 'x, -y, -z'
6 '-x, y, -z'
7 '-x, -y, z'
8 'x, y, z'
9 '-y+1/2, -x+1/2, z+1/2'
10 'y+1/2, x+1/2, z+1/2'
11 'y+1/2, -x+1/2, -z+1/2'
12 '-y+1/2, x+1/2, -z+1/2'
13 'x+1/2, -y+1/2, -z+1/2'
14 '-x+1/2, y+1/2, -z+1/2'
15 '-x+1/2, -y+1/2, z+1/2'
16 'x+1/2, y+1/2, z+1/2'
loop_
_atom_type_symbol
_atom_type_oxidation_number
Cu1+ 1
Sb5+ 5
S2- -2
loop_
_atom_site_label
_atom_site_type_symbol
_atom_site_symmetry_multiplicity
_atom_site_Wyckoff_symbol
_atom_site_fract_x
_atom_site_fract_y
_atom_site_fract_z
_atom_site_B_iso_or_equiv
_atom_site_occupancy
_atom_site_attached_hydrogens
Cu1 Cu1+ 2 b 0 0 0.5 . 1. 0
Cu2 Cu1+ 4 d 0 0.5 0.25 . 1. 0
Sb1 Sb5+ 2 a 0 0 0 . 1. 0
S1 S2- 8 i 0.25 0.25 0.125 . 1. 0
