
#(C) 2017 by FIZ Karlsruhe - Leibniz Institute for Information Infrastructure, and the U.S. Secretary of
#Commerce on behalf of the United States.  All rights reserved.
data_647795-ICSD
_database_code_ICSD 647795
_audit_creation_date 2013-08-01
_chemical_name_systematic 'Osmium titanium silicide (1/1/1)'
_chemical_formula_structural 'Os Ti Si'
_chemical_formula_sum 'Os1 Si1 Ti1'
_chemical_name_structure_type FeSiTi
_exptl_crystal_density_diffrn 10.33
_publ_section_title

;
Relationships between occurence of superconductivity and crystal structure in
new equiatomic ternary silicides M T Si (M = Ti, Zr, Hf and T = Ru, Os, Rh)
;
_publ_section_comment 'Cell and Type only determined'
loop_
_citation_id
_citation_journal_full
_citation_year
_citation_journal_volume
_citation_page_first
_citation_page_last
_citation_journal_id_ASTM
primary 'Solid State Communications' 1986 59 839 841 SSCOA4
loop_
_publ_author_name
'Zhong Wangxian'
'Chevalier, B.'
'Etourneau, J.'
'Hagenmuller, P.'
_cell_length_a 7.062
_cell_length_b 11.217
_cell_length_c 6.479
_cell_angle_alpha 90.
_cell_angle_beta 90.
_cell_angle_gamma 90.
_cell_volume 513.23
_cell_formula_units_Z 12
_symmetry_space_group_name_H-M 'I m a 2'
_symmetry_Int_Tables_number 46
loop_
_symmetry_equiv_pos_site_id
_symmetry_equiv_pos_as_xyz
1 'x+1/2, -y, z'
2 '-x+1/2, y, z'
3 '-x, -y, z'
4 'x, y, z'
5 'x, -y+1/2, z+1/2'
6 '-x, y+1/2, z+1/2'
7 '-x+1/2, -y+1/2, z+1/2'
8 'x+1/2, y+1/2, z+1/2'
loop_
_atom_type_symbol
_atom_type_oxidation_number
Os0+ 0
Ti0+ 0
Si0+ 0
loop_
_atom_site_label
_atom_site_type_symbol
_atom_site_symmetry_multiplicity
_atom_site_Wyckoff_symbol
_atom_site_fract_x
_atom_site_fract_y
_atom_site_fract_z
_atom_site_B_iso_or_equiv
_atom_site_occupancy
_atom_site_attached_hydrogens
Os1 Os0+ 4 a 0 0 0.25 . 1. 0
Os2 Os0+ 8 c 0.03 0.376 0.12 . 1. 0
Ti1 Ti0+ 4 b 0.25 0.2 0.296 . 1. 0
Ti2 Ti0+ 4 b 0.25 0.779 0.271 . 1. 0
Ti3 Ti0+ 4 b 0.25 0.998 0.918 . 1. 0
Si1 Si0+ 4 b 0.25 0.975 0.506 . 1. 0
Si2 Si0+ 8 c 0.006 0.168 0.995 . 1. 0
#End of TTdata_647795-ICSD