
#(C) 2017 by FIZ Karlsruhe - Leibniz Institute for Information Infrastructure, and the U.S. Secretary of
#Commerce on behalf of the United States.  All rights reserved.
data_647985-ICSD
_database_code_ICSD 647985
_audit_creation_date 2013-08-01
_chemical_name_systematic 'Rhenium phosphide (1/3)'
_chemical_formula_structural 'Re P3'
_chemical_formula_sum 'P3 Re1'
_chemical_name_structure_type TcP3
_exptl_crystal_density_diffrn 7.54
_publ_section_title

;
Preparation and structure of technetium triphosphide and rhenium triphosphide,
isotypic polyphosphides with metal chains
;
_publ_section_comment 'Cell and Type only determined'
loop_
_citation_id
_citation_journal_full
_citation_year
_citation_journal_volume
_citation_page_first
_citation_page_last
_citation_journal_id_ASTM
primary 'Acta Crystallographica B (24,1968-38,1982)' 1982 38 2784 2788 ACBCAR
loop_
_publ_author_name
'Ruehl, R.'
'Jeitschko, W.'
_cell_length_a 15.354(8)
_cell_length_b 3.122(2)
_cell_length_c 5.130(2)
_cell_angle_alpha 90.
_cell_angle_beta 90.
_cell_angle_gamma 90.
_cell_volume 245.91
_cell_formula_units_Z 4
_symmetry_space_group_name_H-M 'P n m a'
_symmetry_Int_Tables_number 62
loop_
_symmetry_equiv_pos_site_id
_symmetry_equiv_pos_as_xyz
1 'x+1/2, y, -z+1/2'
2 'x, -y+1/2, z'
3 '-x+1/2, y+1/2, z+1/2'
4 '-x, -y, -z'
5 '-x+1/2, -y, z+1/2'
6 '-x, y+1/2, -z'
7 'x+1/2, -y+1/2, -z+1/2'
8 'x, y, z'
loop_
_atom_type_symbol
_atom_type_oxidation_number
Re3+ 3
P1- -1
loop_
_atom_site_label
_atom_site_type_symbol
_atom_site_symmetry_multiplicity
_atom_site_Wyckoff_symbol
_atom_site_fract_x
_atom_site_fract_y
_atom_site_fract_z
_atom_site_B_iso_or_equiv
_atom_site_occupancy
_atom_site_attached_hydrogens
Re1 Re3+ 4 c 0.15 0.25 0.15 . 1. 0
P1 P1- 4 c 0.013 0.25 0.353 . 1. 0
P2 P1- 4 c 0.382 0.25 0.32 . 1. 0
P3 P1- 4 c 0.293 0.25 0.978 . 1. 0
#End of TTdata_647985-ICSD