
#(C) 2017 by FIZ Karlsruhe - Leibniz Institute for Information Infrastructure, and the U.S. Secretary of
#Commerce on behalf of the United States.  All rights reserved.
data_648448-ICSD
_database_code_ICSD 648448
_audit_creation_date 2010-02-01
_audit_update_record 2017-08-01
_chemical_name_systematic 'Lead sulfide - HP'
_chemical_formula_structural 'Pb S'
_chemical_formula_sum 'Pb1 S1'
_chemical_name_structure_type TlI
_exptl_crystal_density_diffrn 9.96
_cell_measurement_temperature 293.
_cell_measurement_pressure 14000000.
_publ_section_title

;
High pressure X-ray diffraction study on the structural phase transitions in
PbS, PbSe and PbTe with synchrotron radiation
;
_publ_section_comment 'Cell and Type only determined'
loop_
_citation_id
_citation_journal_full
_citation_year
_citation_journal_volume
_citation_page_first
_citation_page_last
_citation_journal_id_ASTM
primary 'Physica B and C (Netherland) (79,1975-)' 1986 139 356 360 PHBCDQ
loop_
_publ_author_name
'Chattopadhyay, T.'
'Schnering, H.G. von'
'Grosshans, W.'
'Holzapfel, W.B.'
_cell_length_a 3.83(2)
_cell_length_b 10.39(4)
_cell_length_c 4.01(2)
_cell_angle_alpha 90.
_cell_angle_beta 90.
_cell_angle_gamma 90.
_cell_volume 159.57
_cell_formula_units_Z 4
_symmetry_space_group_name_H-M 'C m c m'
_symmetry_Int_Tables_number 63
loop_
_symmetry_equiv_pos_site_id
_symmetry_equiv_pos_as_xyz
1 '-x, y, -z+1/2'
2 '-x, -y, z+1/2'
3 '-x, y, z'
4 '-x, -y, -z'
5 'x, -y, z+1/2'
6 'x, y, -z+1/2'
7 'x, -y, -z'
8 'x, y, z'
9 '-x+1/2, y+1/2, -z+1/2'
10 '-x+1/2, -y+1/2, z+1/2'
11 '-x+1/2, y+1/2, z'
12 '-x+1/2, -y+1/2, -z'
13 'x+1/2, -y+1/2, z+1/2'
14 'x+1/2, y+1/2, -z+1/2'
15 'x+1/2, -y+1/2, -z'
16 'x+1/2, y+1/2, z'
loop_
_atom_type_symbol
_atom_type_oxidation_number
Pb2+ 2
S2- -2
loop_
_atom_site_label
_atom_site_type_symbol
_atom_site_symmetry_multiplicity
_atom_site_Wyckoff_symbol
_atom_site_fract_x
_atom_site_fract_y
_atom_site_fract_z
_atom_site_B_iso_or_equiv
_atom_site_occupancy
_atom_site_attached_hydrogens
Pb1 Pb2+ 4 c 0 0.13 0.25 . 1. 0
S1 S2- 4 c 0 0.4 0.25 . 1. 0
#End of TTdata_648448-ICSD