
#(C) 2017 by FIZ Karlsruhe - Leibniz Institute for Information Infrastructure, and the U.S. Secretary of
#Commerce on behalf of the United States.  All rights reserved.
data_648514-ICSD
_database_code_ICSD 648514
_audit_creation_date 2010-02-01
_chemical_name_systematic 'Lead selenide - HP'
_chemical_formula_structural 'Pb Se'
_chemical_formula_sum 'Pb1 Se1'
_chemical_name_structure_type GeS
_exptl_crystal_density_diffrn 9.32
_cell_measurement_pressure 4300000.
_publ_section_title

;
Polymorphism in some IV-VI compounds induced by high pressure and thin-film
epitaxial growth
;
_publ_section_comment 'Cell and Type only determined'
loop_
_citation_id
_citation_journal_full
_citation_year
_citation_journal_volume
_citation_page_first
_citation_page_last
_citation_journal_id_ASTM
primary 'Applied Physics Letters' 1967 10 282 284 APPLAB
loop_
_publ_author_name
'Mariano, A.N.'
'Chopra, K.L.'
_cell_length_a 11.61
_cell_length_b 4.
_cell_length_c 4.39
_cell_angle_alpha 90.
_cell_angle_beta 90.
_cell_angle_gamma 90.
_cell_volume 203.87
_cell_formula_units_Z 4
_symmetry_space_group_name_H-M 'P n m a'
_symmetry_Int_Tables_number 62
loop_
_symmetry_equiv_pos_site_id
_symmetry_equiv_pos_as_xyz
1 'x+1/2, y, -z+1/2'
2 'x, -y+1/2, z'
3 '-x+1/2, y+1/2, z+1/2'
4 '-x, -y, -z'
5 '-x+1/2, -y, z+1/2'
6 '-x, y+1/2, -z'
7 'x+1/2, -y+1/2, -z+1/2'
8 'x, y, z'
loop_
_atom_type_symbol
_atom_type_oxidation_number
Pb2+ 2
Se2- -2
loop_
_atom_site_label
_atom_site_type_symbol
_atom_site_symmetry_multiplicity
_atom_site_Wyckoff_symbol
_atom_site_fract_x
_atom_site_fract_y
_atom_site_fract_z
_atom_site_B_iso_or_equiv
_atom_site_occupancy
_atom_site_attached_hydrogens
Pb1 Pb2+ 4 c 0.12 0.25 .125 . 1. 0
Se2 Se2- 4 c 0.35 0.25 0 . 1. 0
#End of TTdata_648514-ICSD