
#(C) 2017 by FIZ Karlsruhe - Leibniz Institute for Information Infrastructure, and the U.S. Secretary of
#Commerce on behalf of the United States.  All rights reserved.
data_648838-ICSD
_database_code_ICSD 648838
_audit_creation_date 2012-08-01
_chemical_name_systematic 'Palladium selenide (1/2)'
_chemical_formula_structural 'Pd Se2'
_chemical_formula_sum 'Pd1 Se2'
_chemical_name_structure_type PdS2
_exptl_crystal_density_diffrn 6.82
_publ_section_title

;
High pressure phase transformation studies of Pd1-x Mx Se2 (M = Rh, Ru, Co,
Ni)
;
_publ_section_comment 'Cell and Type only determined'
loop_
_citation_id
_citation_journal_full
_citation_year
_citation_journal_volume
_citation_page_first
_citation_page_last
_citation_journal_id_ASTM
primary 'Solid Compounds of Transition Elements, Int. Conference Stuttgart' 1979
1979 63 65 100028
loop_
_publ_author_name
'Avignant, D.'
'Carre, D.'
'Collins, R.C.'
'Wold, A.'
_cell_length_a 5.758
_cell_length_b 5.858
_cell_length_c 7.628
_cell_angle_alpha 90.
_cell_angle_beta 90.
_cell_angle_gamma 90.
_cell_volume 257.3
_cell_formula_units_Z 4
_symmetry_space_group_name_H-M 'P b c a'
_symmetry_Int_Tables_number 61
loop_
_symmetry_equiv_pos_site_id
_symmetry_equiv_pos_as_xyz
1 'x+1/2, y, -z+1/2'
2 'x, -y+1/2, z+1/2'
3 '-x+1/2, y+1/2, z'
4 '-x, -y, -z'
5 '-x+1/2, -y, z+1/2'
6 '-x, y+1/2, -z+1/2'
7 'x+1/2, -y+1/2, -z'
8 'x, y, z'
loop_
_atom_type_symbol
_atom_type_oxidation_number
Pd0+ 0
Se0+ 0
loop_
_atom_site_label
_atom_site_type_symbol
_atom_site_symmetry_multiplicity
_atom_site_Wyckoff_symbol
_atom_site_fract_x
_atom_site_fract_y
_atom_site_fract_z
_atom_site_B_iso_or_equiv
_atom_site_occupancy
_atom_site_attached_hydrogens
Pd1 Pd0+ 4 a 0 0 0 . 1. 0
Se1 Se0+ 8 c 0.112 0.117 0.407 . 1. 0
#End of TTdata_648838-ICSD