
#(C) 2017 by FIZ Karlsruhe - Leibniz Institute for Information Infrastructure, and the U.S. Secretary of
#Commerce on behalf of the United States.  All rights reserved.
data_649055-ICSD
_database_code_ICSD 649055
_audit_creation_date 2013-08-01
_chemical_name_systematic 'Palladium thallium (2/1)'
_chemical_formula_structural 'Pd2 Tl'
_chemical_formula_sum 'Pd2 Tl1'
_chemical_name_structure_type Co2Si
_exptl_crystal_density_diffrn 13.76
_publ_section_title

;
Ueber die Struktur von Phasen mit Kupfer-Unterstruktur in einigen T - B
Legierungen (T= Ni, Pd, Pt; B= Ga, In, Tl, Pb, Sb, Bi)
;
_publ_section_comment 'Cell and Type only determined'
loop_
_citation_id
_citation_journal_full
_citation_year
_citation_journal_volume
_citation_page_first
_citation_page_last
_citation_journal_id_ASTM
primary 'Journal of the Less-Common Metals' 1969 17 73 90 JCOMAH
loop_
_publ_author_name
'Bhan, S.'
'Schubert, K.'
_cell_length_a 5.71
_cell_length_b 4.22
_cell_length_c 8.36
_cell_angle_alpha 90.
_cell_angle_beta 90.
_cell_angle_gamma 90.
_cell_volume 201.44
_cell_formula_units_Z 4
_symmetry_space_group_name_H-M 'P n m a'
_symmetry_Int_Tables_number 62
loop_
_symmetry_equiv_pos_site_id
_symmetry_equiv_pos_as_xyz
1 'x+1/2, y, -z+1/2'
2 'x, -y+1/2, z'
3 '-x+1/2, y+1/2, z+1/2'
4 '-x, -y, -z'
5 '-x+1/2, -y, z+1/2'
6 '-x, y+1/2, -z'
7 'x+1/2, -y+1/2, -z+1/2'
8 'x, y, z'
loop_
_atom_type_symbol
_atom_type_oxidation_number
Tl0+ 0
Pd0+ 0
loop_
_atom_site_label
_atom_site_type_symbol
_atom_site_symmetry_multiplicity
_atom_site_Wyckoff_symbol
_atom_site_fract_x
_atom_site_fract_y
_atom_site_fract_z
_atom_site_B_iso_or_equiv
_atom_site_occupancy
_atom_site_attached_hydrogens
Tl1 Tl0+ 4 c 0.822 0.25 0.398 . 1. 0
Pd1 Pd0+ 4 c 0.84 0.25 0.072 . 1. 0
Pd2 Pd0+ 4 c 0.933 0.25 0.732 . 1. 0
#End of TTdata_649055-ICSD