
#(C) 2017 by FIZ Karlsruhe - Leibniz Institute for Information Infrastructure, and the U.S. Secretary of
#Commerce on behalf of the United States.  All rights reserved.
data_649539-ICSD
_database_code_ICSD 649539
_audit_creation_date 2013-08-01
_chemical_name_systematic 'Platinum sulfide (1/1)'
_chemical_formula_structural 'Pt S'
_chemical_formula_sum 'Pt1 S1'
_chemical_name_structure_type PdS
_exptl_crystal_density_diffrn 11.14
_publ_section_title 'High-pressure phase transformation of platinum sulfide'
_publ_section_comment 'Cell and Type only determined'
loop_
_citation_id
_citation_journal_full
_citation_year
_citation_journal_volume
_citation_page_first
_citation_page_last
_citation_journal_id_ASTM
primary 'Inorganic Chemistry' 1979 18 727 * INOCAJ
loop_
_publ_author_name
'Collins, R.'
'Kaner, R.'
'Russo, P.J.'
'Wold, A.'
'Avignant, D.'
_cell_length_a 6.409(1)
_cell_length_b 6.409(1)
_cell_length_c 6.596(1)
_cell_angle_alpha 90.
_cell_angle_beta 90.
_cell_angle_gamma 90.
_cell_volume 270.93
_cell_formula_units_Z 8
_symmetry_space_group_name_H-M 'P 42/m'
_symmetry_Int_Tables_number 84
loop_
_symmetry_equiv_pos_site_id
_symmetry_equiv_pos_as_xyz
1 '-y, x, -z+1/2'
2 'y, -x, -z+1/2'
3 'x, y, -z'
4 '-x, -y, -z'
5 'y, -x, z+1/2'
6 '-y, x, z+1/2'
7 '-x, -y, z'
8 'x, y, z'
loop_
_atom_type_symbol
_atom_type_oxidation_number
Pt2+ 2
S2- -2
loop_
_atom_site_label
_atom_site_type_symbol
_atom_site_symmetry_multiplicity
_atom_site_Wyckoff_symbol
_atom_site_fract_x
_atom_site_fract_y
_atom_site_fract_z
_atom_site_B_iso_or_equiv
_atom_site_occupancy
_atom_site_attached_hydrogens
Pt1 Pt2+ 2 e 0 0 0.25 . 1. 0
Pt2 Pt2+ 2 d 0.5 0 0 . 1. 0
Pt3 Pt2+ 4 j 0.257 0.468 0 . 1. 0
S1 S2- 8 k 0.308 0.194 0.229 . 1. 0
#End of TTdata_649539-ICSD