
#(C) 2017 by FIZ Karlsruhe - Leibniz Institute for Information Infrastructure, and the U.S. Secretary of
#Commerce on behalf of the United States.  All rights reserved.
data_650285-ICSD
_database_code_ICSD 650285
_audit_creation_date 2013-08-01
_chemical_name_systematic 'Rhodium selenide (3/8)'
_chemical_formula_structural 'Rh3 Se8'
_chemical_formula_sum 'Rh3 Se8'
_chemical_name_structure_type Rh3Te8
_exptl_crystal_density_diffrn 7.32
_publ_section_title 'The rhodium-selenium system'
_publ_section_comment 'Cell and Type only determined'
loop_
_citation_id
_citation_journal_full
_citation_year
_citation_journal_volume
_citation_page_first
_citation_page_last
_citation_journal_id_ASTM
primary 'Canadian Journal of Chemistry' 1967 45 131 137 CJCHAG
loop_
_publ_author_name
'Rummery, T.E.'
'Heyding, R.D.'
_cell_length_a 8.490(2)
_cell_length_b 8.490(2)
_cell_length_c 10.193(4)
_cell_angle_alpha 90.
_cell_angle_beta 90.
_cell_angle_gamma 120.
_cell_volume 636.28
_cell_formula_units_Z 3
_symmetry_space_group_name_H-M 'R -3 H'
_symmetry_Int_Tables_number 148
loop_
_symmetry_equiv_pos_site_id
_symmetry_equiv_pos_as_xyz
1 'x-y, x, -z'
2 'y, -x+y, -z'
3 '-x, -y, -z'
4 '-x+y, -x, z'
5 '-y, x-y, z'
6 'x, y, z'
7 'x-y+2/3, x+1/3, -z+1/3'
8 'y+2/3, -x+y+1/3, -z+1/3'
9 '-x+2/3, -y+1/3, -z+1/3'
10 '-x+y+2/3, -x+1/3, z+1/3'
11 '-y+2/3, x-y+1/3, z+1/3'
12 'x+2/3, y+1/3, z+1/3'
13 'x-y+1/3, x+2/3, -z+2/3'
14 'y+1/3, -x+y+2/3, -z+2/3'
15 '-x+1/3, -y+2/3, -z+2/3'
16 '-x+y+1/3, -x+2/3, z+2/3'
17 '-y+1/3, x-y+2/3, z+2/3'
18 'x+1/3, y+2/3, z+2/3'
loop_
_atom_type_symbol
_atom_type_oxidation_number
Rh2+ 2.67
Se1- -1
loop_
_atom_site_label
_atom_site_type_symbol
_atom_site_symmetry_multiplicity
_atom_site_Wyckoff_symbol
_atom_site_fract_x
_atom_site_fract_y
_atom_site_fract_z
_atom_site_B_iso_or_equiv
_atom_site_occupancy
_atom_site_attached_hydrogens
Rh1 Rh2+ 9 e 0.5 0 0 . 1. 0
Se1 Se1- 18 f 0.348 0.92 0.541 . 1. 0
Se2 Se1- 6 c 0 0 0.38 . 1. 0
#End of TTdata_650285-ICSD