
#(C) 2017 by FIZ Karlsruhe - Leibniz Institute for Information Infrastructure.  All rights reserved.
data_65032-ICSD
_database_code_ICSD 65032
_audit_creation_date 1989-06-19
_audit_update_record 2012-08-01
_chemical_name_systematic 'Tetralanthanum palladium oxide'
_chemical_formula_structural 'La4 Pd O7'
_chemical_formula_sum 'La4 O7 Pd1'
_exptl_crystal_density_diffrn 6.91
_publ_section_title

;
Ab initio structure determinations of two lanthanum palladium oxides by
modelling and powder diffraction methods
;
loop_
_citation_id
_citation_journal_full
_citation_year
_citation_journal_volume
_citation_page_first
_citation_page_last
_citation_journal_id_ASTM
primary 'Acta Crystallographica, Section B: Structural Science' 1988 44 563 568
ASBSDK
loop_
_publ_author_name
'Attfield, J.P.'
_cell_length_a 13.469(1)
_cell_length_b 4.0262(1)
_cell_length_c 9.448(1)
_cell_angle_alpha 90.
_cell_angle_beta 133.42(1)
_cell_angle_gamma 90.
_cell_volume 372.14
_cell_formula_units_Z 2
_symmetry_space_group_name_H-M 'C 1 2/m 1'
_symmetry_Int_Tables_number 12
loop_
_symmetry_equiv_pos_site_id
_symmetry_equiv_pos_as_xyz
1 '-x, y, -z'
2 '-x, -y, -z'
3 'x, -y, z'
4 'x, y, z'
5 '-x+1/2, y+1/2, -z'
6 '-x+1/2, -y+1/2, -z'
7 'x+1/2, -y+1/2, z'
8 'x+1/2, y+1/2, z'
loop_
_atom_type_symbol
_atom_type_oxidation_number
La3+ 3
Pd2+ 2
O2- -2
loop_
_atom_site_label
_atom_site_type_symbol
_atom_site_symmetry_multiplicity
_atom_site_Wyckoff_symbol
_atom_site_fract_x
_atom_site_fract_y
_atom_site_fract_z
_atom_site_B_iso_or_equiv
_atom_site_occupancy
_atom_site_attached_hydrogens
La1 La3+ 4 i 0.2470(3) 0.5 0.1540(4) 0.40(6) 1. 0
La2 La3+ 4 i 0.5839(3) 0 0.3889(5) 0.13(5) 1. 0
Pd1 Pd2+ 2 a 0 0 0 0.10(9) 1. 0
O1 O2- 2 b 0 0.5 0 3.8(2) 1. 0
O2 O2- 4 i 0.3673(4) 0 0.3101(6) 0.47(8) 1. 0
O3 O2- 4 i 0.0875(5) 0 -.1126(8) 1.49(7) 1. 0
O4 O2- 4 i 0.2961(5) 0.5 0.4462(7) 1.51(9) 1. 0
#End of TTdata_65032-ICSD