
#(C) 2017 by FIZ Karlsruhe - Leibniz Institute for Information Infrastructure, and the U.S. Secretary of
#Commerce on behalf of the United States.  All rights reserved.
data_650344-ICSD
_database_code_ICSD 650344
_audit_creation_date 2012-08-01
_chemical_name_systematic 'Yttrium rhodium silicide (3/2/3)'
_chemical_formula_structural 'Y3 Rh2 Si3'
_chemical_formula_sum 'Rh2 Si3 Y3'
_chemical_name_structure_type Hf3Ni2Si3
_exptl_crystal_density_diffrn 6.05
_publ_section_title

;
Orthorhombic palladium yttrium silicide Y3 Pd2 Si3 and rhodium yttrium
silicide Y3 Rh2 Si3 wih Hf3 Ni2 Si3 structure type
;
_publ_section_comment 'Cell and Type only determined'
loop_
_citation_id
_citation_journal_full
_citation_year
_citation_journal_volume
_citation_page_first
_citation_page_last
_citation_journal_id_ASTM
primary 'Acta Crystallographica B (24,1968-38,1982)' 1982 38 2448 2449 ACBCAR
loop_
_publ_author_name
'Paccard, D.'
'le Roy, J.'
'Moreau, J.M.'
_cell_length_a 4.174(2)
_cell_length_b 10.598(4)
_cell_length_c 13.726(5)
_cell_angle_alpha 90.
_cell_angle_beta 90.
_cell_angle_gamma 90.
_cell_volume 607.18
_cell_formula_units_Z 4
_symmetry_space_group_name_H-M 'C m c m'
_symmetry_Int_Tables_number 63
loop_
_symmetry_equiv_pos_site_id
_symmetry_equiv_pos_as_xyz
1 '-x, y, -z+1/2'
2 '-x, -y, z+1/2'
3 '-x, y, z'
4 '-x, -y, -z'
5 'x, -y, z+1/2'
6 'x, y, -z+1/2'
7 'x, -y, -z'
8 'x, y, z'
9 '-x+1/2, y+1/2, -z+1/2'
10 '-x+1/2, -y+1/2, z+1/2'
11 '-x+1/2, y+1/2, z'
12 '-x+1/2, -y+1/2, -z'
13 'x+1/2, -y+1/2, z+1/2'
14 'x+1/2, y+1/2, -z+1/2'
15 'x+1/2, -y+1/2, -z'
16 'x+1/2, y+1/2, z'
loop_
_atom_type_symbol
_atom_type_oxidation_number
Y0+ 0
Rh0+ 0
Si0+ 0
loop_
_atom_site_label
_atom_site_type_symbol
_atom_site_symmetry_multiplicity
_atom_site_Wyckoff_symbol
_atom_site_fract_x
_atom_site_fract_y
_atom_site_fract_z
_atom_site_B_iso_or_equiv
_atom_site_occupancy
_atom_site_attached_hydrogens
Y1 Y0+ 8 f 0 0.073 0.118 . 1. 0
Y2 Y0+ 4 c 0 0.366 0.25 . 1. 0
Rh1 Rh0+ 8 f 0 0.217 0.584 . 1. 0
Si1 Si0+ 8 f 0 0.391 0.039 . 1. 0
Si2 Si0+ 4 c 0 0.666 0.25 . 1. 0
#End of TTdata_650344-ICSD