
data_650384-ICSD
_database_code_ICSD 650384
_audit_creation_date 2012-08-01
_audit_update_record 2017-08-01
_chemical_name_systematic 'Rhodium stannide (1/2)'
_chemical_formula_structural 'Rh Sn2'
_chemical_formula_sum 'Rh1 Sn2'
_chemical_name_structure_type PdSn2
_exptl_crystal_density_diffrn 9.41
_cell_length_a 6.319(5)
_cell_length_b 6.319(5)
_cell_length_c 11.97(1)
_cell_angle_alpha 90.
_cell_angle_beta 90.
_cell_angle_gamma 90.
_cell_volume 477.96
_cell_formula_units_Z 8
_symmetry_space_group_name_H-M 'A b a 2'
_symmetry_Int_Tables_number 41
loop_
_symmetry_equiv_pos_site_id
_symmetry_equiv_pos_as_xyz
1 'x+1/2, -y+1/2, z'
2 '-x+1/2, y+1/2, z'
3 '-x, -y, z'
4 'x, y, z'
5 'x+1/2, -y, z+1/2'
6 '-x+1/2, y, z+1/2'
7 '-x, -y+1/2, z+1/2'
8 'x, y+1/2, z+1/2'
loop_
_atom_type_symbol
_atom_type_oxidation_number
Rh0+ 0
Sn0+ 0
loop_
_atom_site_label
_atom_site_type_symbol
_atom_site_symmetry_multiplicity
_atom_site_Wyckoff_symbol
_atom_site_fract_x
_atom_site_fract_y
_atom_site_fract_z
_atom_site_B_iso_or_equiv
_atom_site_occupancy
_atom_site_attached_hydrogens
Rh1 Rh0+ 4 a 0 0 0.01 . 1. 0
Rh2 Rh0+ 4 a 0 0 0.238 . 1. 0
Sn1 Sn0+ 8 b 0.342 0.158 0.125 . 1. 0
Sn2 Sn0+ 8 b 0.25 0.25 0.875 . 1. 0
