
#(C) 2017 by FIZ Karlsruhe - Leibniz Institute for Information Infrastructure, and the U.S. Secretary of
#Commerce on behalf of the United States.  All rights reserved.
data_650415-ICSD
_database_code_ICSD 650415
_audit_creation_date 2013-08-01
_audit_update_record 2017-08-01
_chemical_name_systematic 'Rhodium tantalum (2/1)'
_chemical_formula_structural 'Rh2 Ta'
_chemical_formula_sum 'Rh2 Ta1'
_chemical_name_structure_type Co2Si
_exptl_crystal_density_diffrn 14.17
_publ_section_title
'New intermediate phases in systems of Nb or Ta with Rh, Ir, Pd, or Pt'
_publ_section_comment 'Cell and Type only determined'
loop_
_citation_id
_citation_journal_full
_citation_year
_citation_journal_volume
_citation_page_first
_citation_page_last
_citation_journal_id_ASTM
primary 'Acta Crystallographica (1,1948-23,1967)' 1964 17 615 616 ACCRA9
loop_
_publ_author_name
'Giessen, B.C.'
'Grant, N.J.'
_cell_length_a 5.454
_cell_length_b 4.027
_cell_length_c 8.179
_cell_angle_alpha 90.
_cell_angle_beta 90.
_cell_angle_gamma 90.
_cell_volume 179.64
_cell_formula_units_Z 4
_symmetry_space_group_name_H-M 'P n m a'
_symmetry_Int_Tables_number 62
loop_
_symmetry_equiv_pos_site_id
_symmetry_equiv_pos_as_xyz
1 'x+1/2, y, -z+1/2'
2 'x, -y+1/2, z'
3 '-x+1/2, y+1/2, z+1/2'
4 '-x, -y, -z'
5 '-x+1/2, -y, z+1/2'
6 '-x, y+1/2, -z'
7 'x+1/2, -y+1/2, -z+1/2'
8 'x, y, z'
loop_
_atom_type_symbol
_atom_type_oxidation_number
Ta0+ 0
Rh0+ 0
loop_
_atom_site_label
_atom_site_type_symbol
_atom_site_symmetry_multiplicity
_atom_site_Wyckoff_symbol
_atom_site_fract_x
_atom_site_fract_y
_atom_site_fract_z
_atom_site_B_iso_or_equiv
_atom_site_occupancy
_atom_site_attached_hydrogens
Ta1 Ta0+ 4 c 0.327 0.25 0.102 . 1. 0
Rh1 Rh0+ 4 c 0.337 0.25 0.428 . 1. 0
Rh2 Rh0+ 4 c 0.44 0.25 0.766 . 1. 0
#End of TTdata_650415-ICSD