
#(C) 2017 by FIZ Karlsruhe - Leibniz Institute for Information Infrastructure, and the U.S. Secretary of
#Commerce on behalf of the United States.  All rights reserved.
data_650615-ICSD
_database_code_ICSD 650615
_audit_creation_date 2013-08-01
_chemical_name_systematic 'Ruthenium silicide (5/3)'
_chemical_formula_structural 'Ru5 Si3'
_chemical_formula_sum 'Ru5 Si3'
_chemical_name_structure_type Ge3Rh5
_exptl_crystal_density_diffrn 9.45
_publ_section_title 'Note on the crystal structures of Ru5 Si3 and Pd Si'
_publ_section_comment 'Cell and Type only determined'
loop_
_citation_id
_citation_journal_full
_citation_year
_citation_journal_volume
_citation_page_first
_citation_page_last
_citation_journal_id_ASTM
primary 'Acta Chemica Scandinavica (1-27,1973-42,1988)' 1970 24 1466 1468 ACSAA4
loop_
_publ_author_name
'Engstroem, I.'
_cell_length_a 5.246(2)
_cell_length_b 9.815(2)
_cell_length_c 4.023(1)
_cell_angle_alpha 90.
_cell_angle_beta 90.
_cell_angle_gamma 90.
_cell_volume 207.14
_cell_formula_units_Z 2
_symmetry_space_group_name_H-M 'P b a m'
_symmetry_Int_Tables_number 55
loop_
_symmetry_equiv_pos_site_id
_symmetry_equiv_pos_as_xyz
1 'x+1/2, -y+1/2, z'
2 '-x+1/2, y+1/2, z'
3 'x, y, -z'
4 '-x, -y, -z'
5 '-x+1/2, y+1/2, -z'
6 'x+1/2, -y+1/2, -z'
7 '-x, -y, z'
8 'x, y, z'
loop_
_atom_type_symbol
_atom_type_oxidation_number
Ru0+ 0
Si0+ 0
loop_
_atom_site_label
_atom_site_type_symbol
_atom_site_symmetry_multiplicity
_atom_site_Wyckoff_symbol
_atom_site_fract_x
_atom_site_fract_y
_atom_site_fract_z
_atom_site_B_iso_or_equiv
_atom_site_occupancy
_atom_site_attached_hydrogens
Ru1 Ru0+ 2 c 0 0.5 0 . 1. 0
Ru2 Ru0+ 4 g 0.154 0.216 0 . 1. 0
Ru3 Ru0+ 4 h 0.33 0.394 0.5 . 1. 0
Si1 Si0+ 2 a 0 0 0 . 1. 0
Si2 Si0+ 4 h 0.392 0.15 0.5 . 1. 0
#End of TTdata_650615-ICSD