
#(C) 2017 by FIZ Karlsruhe - Leibniz Institute for Information Infrastructure, and the U.S. Secretary of
#Commerce on behalf of the United States.  All rights reserved.
data_650888-ICSD
_database_code_ICSD 650888
_audit_creation_date 2012-08-01
_chemical_name_systematic 'Distrontium tetrathiosilicate'
_chemical_formula_structural 'Sr2 (Si S4)'
_chemical_formula_sum 'S4 Si1 Sr2'
_chemical_name_structure_type K2ZnBr4
_exptl_crystal_density_diffrn 3.23
_publ_section_title 'Chimie minerale. Sur les systemes Si S2 - M S (M = Ba, Sr)'
_publ_section_comment 'Cell and Type only determined'
loop_
_citation_id
_citation_journal_full
_citation_year
_citation_journal_volume
_citation_page_first
_citation_page_last
_citation_journal_id_ASTM
primary

;
Comptes Rendus Hebdomadaires des Seances de l'Academie des Sciences, Serie C,
Sciences Chimiques (1966-)
; 1970 271 1456 1459 CHDCAQ
loop_
_publ_author_name
'Dumail, R.'
'Ribes, M.'
'Philippot, E.'
_cell_length_a 8.248(4)
_cell_length_b 6.640(4)
_cell_length_c 6.556(4)
_cell_angle_alpha 90.
_cell_angle_beta 108.36(6)
_cell_angle_gamma 90.
_cell_volume 340.77
_cell_formula_units_Z 2
_symmetry_space_group_name_H-M 'P 1 21/m 1'
_symmetry_Int_Tables_number 11
loop_
_symmetry_equiv_pos_site_id
_symmetry_equiv_pos_as_xyz
1 'x, -y+1/2, z'
2 '-x, -y, -z'
3 '-x, y+1/2, -z'
4 'x, y, z'
loop_
_atom_type_symbol
_atom_type_oxidation_number
Sr2+ 2
Si4+ 4
S2- -2
loop_
_atom_site_label
_atom_site_type_symbol
_atom_site_symmetry_multiplicity
_atom_site_Wyckoff_symbol
_atom_site_fract_x
_atom_site_fract_y
_atom_site_fract_z
_atom_site_B_iso_or_equiv
_atom_site_occupancy
_atom_site_attached_hydrogens
Sr1 Sr2+ 2 e 0.052 0.25 0.718 . 1. 0
Sr2 Sr2+ 2 e 0.568 0.25 0.768 . 1. 0
Si1 Si4+ 2 e 0.201 0.25 0.274 . 1. 0
S1 S2- 2 e -.076 0.25 0.1 . 1. 0
S2 S2- 2 e 0.373 0.25 0.079 . 1. 0
S3 S2- 4 f 0.251 -.004 0.495 . 1. 0
#End of TTdata_650888-ICSD