
#(C) 2017 by FIZ Karlsruhe - Leibniz Institute for Information Infrastructure, and the U.S. Secretary of
#Commerce on behalf of the United States.  All rights reserved.
data_651959-ICSD
_database_code_ICSD 651959
_audit_creation_date 2012-08-01
_chemical_name_systematic 'Tantalum selenide (1/3)'
_chemical_formula_structural 'Ta Se3'
_chemical_formula_sum 'Se3 Ta1'
_chemical_name_structure_type NbSe3
_exptl_crystal_density_diffrn 8.1
_publ_section_title

;
High-pressure syntheses of Ta S3, Nb S3, Ta Se3, and Nb Se3 with Nb Se3 - type
crystal structure
;
_publ_section_comment 'Cell and Type only determined'
loop_
_citation_id
_citation_journal_full
_citation_year
_citation_journal_volume
_citation_page_first
_citation_page_last
_citation_journal_id_ASTM
primary 'Journal of Solid State Chemistry' 1982 41 315 322 JSSCBI
loop_
_publ_author_name
'Kikkawa, S.'
'Ogawa, N.'
'Koizumi, M.'
'Onuki, Y.'
_cell_length_a 10.02
_cell_length_b 3.48
_cell_length_c 15.65
_cell_angle_alpha 90.
_cell_angle_beta 109.6
_cell_angle_gamma 90.
_cell_volume 514.09
_cell_formula_units_Z 6
_symmetry_space_group_name_H-M 'P 1 21/m 1'
_symmetry_Int_Tables_number 11
loop_
_symmetry_equiv_pos_site_id
_symmetry_equiv_pos_as_xyz
1 'x, -y+1/2, z'
2 '-x, -y, -z'
3 '-x, y+1/2, -z'
4 'x, y, z'
loop_
_atom_type_symbol
_atom_type_oxidation_number
Ta0+ 0
Se0+ 0
loop_
_atom_site_label
_atom_site_type_symbol
_atom_site_symmetry_multiplicity
_atom_site_Wyckoff_symbol
_atom_site_fract_x
_atom_site_fract_y
_atom_site_fract_z
_atom_site_B_iso_or_equiv
_atom_site_occupancy
_atom_site_attached_hydrogens
Ta1 Ta0+ 2 e 0.653 0.25 0.118 . 1. 0
Ta2 Ta0+ 2 e 0.316 0.75 0.206 . 1. 0
Ta3 Ta0+ 2 e 0.294 0.25 0.461 . 1. 0
Se1 Se0+ 2 e 0.442 0.75 0.066 . 1. 0
Se2 Se0+ 2 e 0.834 0.75 0.088 . 1. 0
Se3 Se0+ 2 e 0.804 0.75 0.239 . 1. 0
Se4 Se0+ 2 e 0.164 0.25 0.087 . 1. 0
Se5 Se0+ 2 e 0.179 0.25 0.276 . 1. 0
Se6 Se0+ 2 e 0.527 0.25 0.249 . 1. 0
Se7 Se0+ 2 e 0.083 0.75 0.425 . 1. 0
Se8 Se0+ 2 e 0.441 0.75 0.405 . 1. 0
Se9 Se0+ 2 e 0.244 0.75 0.576 . 1. 0
#End of TTdata_651959-ICSD