
data_652059-ICSD
_database_code_ICSD 652059
_audit_creation_date 2012-08-01
_chemical_name_systematic 'Thallium titanium selenide (1/5/8)'
_chemical_formula_structural 'Tl Ti5 Se8'
_chemical_formula_sum 'Se8 Ti5 Tl1'
_chemical_name_structure_type Cr5CsS8
_exptl_crystal_density_diffrn 5.99
_cell_length_a 18.778
_cell_length_b 3.59
_cell_length_c 9.127
_cell_angle_alpha 90.
_cell_angle_beta 104.12
_cell_angle_gamma 90.
_cell_volume 596.69
_cell_formula_units_Z 2
_symmetry_space_group_name_H-M 'C 1 2 1'
_symmetry_Int_Tables_number 5
loop_
_symmetry_equiv_pos_site_id
_symmetry_equiv_pos_as_xyz
1 '-x, y, -z'
2 'x, y, z'
3 '-x+1/2, y+1/2, -z'
4 'x+1/2, y+1/2, z'
loop_
_atom_type_symbol
_atom_type_oxidation_number
Tl1+ 1
Ti3+ 3
Se2- -2
loop_
_atom_site_label
_atom_site_type_symbol
_atom_site_symmetry_multiplicity
_atom_site_Wyckoff_symbol
_atom_site_fract_x
_atom_site_fract_y
_atom_site_fract_z
_atom_site_B_iso_or_equiv
_atom_site_occupancy
_atom_site_attached_hydrogens
Tl1 Tl1+ 2 a 0 0.5 0 . 1. 0
Ti1 Ti3+ 2 b 0 0 0.5 . 1. 0
Ti2 Ti3+ 4 c 0.295 0 0.165 . 1. 0
Ti3 Ti3+ 4 c 0.341 0 0.511 . 1. 0
Se1 Se2- 4 c 0.171 0 -.007 . 1. 0
Se2 Se2- 4 c 0.241 0 0.659 . 1. 0
Se3 Se2- 4 c 0.089 0 0.332 . 1. 0
Se4 Se2- 4 c 0.426 0 0.339 . 1. 0
