
#(C) 2017 by FIZ Karlsruhe - Leibniz Institute for Information Infrastructure.  All rights reserved.
data_65205-ICSD
_database_code_ICSD 65205
_audit_creation_date 1989-12-04
_audit_update_record 2000-07-15
_chemical_name_systematic 'Potassium chloride phyllo-arsenic oxide'
_chemical_formula_structural 'K Cl As4 O6'
_chemical_formula_sum 'As4 Cl1 K1 O6'
_chemical_name_structure_type KAs4O6Br
_exptl_crystal_density_diffrn 3.68
_publ_section_title

;
The compounds K As4 O6 X (X= Cl, Br, I) and N H4 As4 O6 X (X= Br, I):
Hydrothermal syntheses and structure determinations
;
loop_
_citation_id
_citation_journal_full
_citation_year
_citation_journal_volume
_citation_page_first
_citation_page_last
_citation_journal_id_ASTM
primary 'Monatshefte fuer Chemie' 1988 119 451 456 MOCMB7
loop_
_publ_author_name
'Pertlik, F.'
_cell_length_a 5.252(1)
_cell_length_b 5.252(1)
_cell_length_c 8.880(2)
_cell_angle_alpha 90.
_cell_angle_beta 90.
_cell_angle_gamma 120.
_cell_volume 212.13
_cell_formula_units_Z 1
_symmetry_space_group_name_H-M 'P 6/m m m'
_symmetry_Int_Tables_number 191
_refine_ls_R_factor_all 0.034
loop_
_symmetry_equiv_pos_site_id
_symmetry_equiv_pos_as_xyz
1 '-x, -x+y, -z'
2 'x-y, -y, -z'
3 'y, x, -z'
4 '-x+y, -x, -z'
5 '-y, x-y, -z'
6 'x, y, -z'
7 'x, x-y, -z'
8 '-x+y, y, -z'
9 '-y, -x, -z'
10 'x-y, x, -z'
11 'y, -x+y, -z'
12 '-x, -y, -z'
13 'x, x-y, z'
14 '-x+y, y, z'
15 '-y, -x, z'
16 'x-y, x, z'
17 'y, -x+y, z'
18 '-x, -y, z'
19 '-x, -x+y, z'
20 'x-y, -y, z'
21 'y, x, z'
22 '-x+y, -x, z'
23 '-y, x-y, z'
24 'x, y, z'
loop_
_atom_type_symbol
_atom_type_oxidation_number
K1+ 1
As3+ 3
O2- -2
Cl1- -1
loop_
_atom_site_label
_atom_site_type_symbol
_atom_site_symmetry_multiplicity
_atom_site_Wyckoff_symbol
_atom_site_fract_x
_atom_site_fract_y
_atom_site_fract_z
_atom_site_B_iso_or_equiv
_atom_site_occupancy
_atom_site_attached_hydrogens
K1 K1+ 1 b 0 0 0.5 . 1. 0
As1 As3+ 4 h 0.3333 0.6667 0.20533(5) . 1. 0
O1 O2- 6 i 0.5 0 0.3136(3) . 1. 0
Cl1 Cl1- 1 a 0 0 0 . 1. 0
loop_
_atom_site_aniso_label
_atom_site_aniso_type_symbol
_atom_site_aniso_U_11
_atom_site_aniso_U_22
_atom_site_aniso_U_33
_atom_site_aniso_U_12
_atom_site_aniso_U_13
_atom_site_aniso_U_23
K1 K1+ 0.0354(6) 0.0354(6) 0.0301(10) 0.0177(3) 0 0
As1 As3+ 0.0150(1) 0.0150(1) 0.0172(2) 0.00750(5) 0 0
O1 O2- 0.0297(34) 0.0126(8) 0.0225(11) 0.0111(31) 0 0
Cl1 Cl1- 0.0315(7) 0.0315(7) 0.0774(28) 0.01575(35) 0 0
#End of TTdata_65205-ICSD