
data_65252-ICSD
_database_code_ICSD 65252
_audit_creation_date 1989-12-04
_chemical_name_systematic 'Barium iron fluoride'
_chemical_formula_structural 'Ba Fe F4'
_chemical_formula_sum 'Ba1 F4 Fe1'
_chemical_name_structure_type BaCuF4
_exptl_crystal_density_diffrn 4.86
_cell_length_a 5.834
_cell_length_b 14.873
_cell_length_c 4.24
_cell_angle_alpha 90.
_cell_angle_beta 90.
_cell_angle_gamma 90.
_cell_volume 367.9
_cell_formula_units_Z 4
_symmetry_space_group_name_H-M 'A 21 a m'
_symmetry_Int_Tables_number 36
_refine_ls_R_factor_all 0.018
loop_
_symmetry_equiv_pos_site_id
_symmetry_equiv_pos_as_xyz
1 'x+1/2, -y, z'
2 'x+1/2, -y, -z'
3 'x, y, -z'
4 'x, y, z'
5 'x+1/2, -y+1/2, z+1/2'
6 'x+1/2, -y+1/2, -z+1/2'
7 'x, y+1/2, -z+1/2'
8 'x, y+1/2, z+1/2'
loop_
_atom_type_symbol
_atom_type_oxidation_number
Ba2+ 2
Fe2+ 2
F1- -1
loop_
_atom_site_label
_atom_site_type_symbol
_atom_site_symmetry_multiplicity
_atom_site_Wyckoff_symbol
_atom_site_fract_x
_atom_site_fract_y
_atom_site_fract_z
_atom_site_B_iso_or_equiv
_atom_site_occupancy
_atom_site_attached_hydrogens
Ba1 Ba2+ 4 a 0.46 0.34924(2) 0.5 . 1. 0
Fe1 Fe2+ 4 a 0.00116(14) 0.41353(5) 0 . 1. 0
F1 F1- 4 a 0.7236(7) 0.3310(3) 0 . 1. 0
F2 F1- 4 a 0.0074(9) 0.9201(4) 0 . 1. 0
F3 F1- 4 a 0.8355(7) 0.5311(3) 0 . 1. 0
F4 F1- 4 a 0.1990(6) 0.3011(3) 0 . 1. 0
loop_
_atom_site_aniso_label
_atom_site_aniso_type_symbol
_atom_site_aniso_U_11
_atom_site_aniso_U_22
_atom_site_aniso_U_33
_atom_site_aniso_U_12
_atom_site_aniso_U_13
_atom_site_aniso_U_23
Ba1 Ba2+ 0.0165(2) 0.0193(2) 0.0065(1) 0.0082(2) 0 0
Fe1 Fe2+ 0.0078(4) 0.0091(3) 0.0082(3) 0.0007(3) 0 0
F1 F1- 0.0120(17) 0.0197(19) 0.0150(19) 0.0041(15) 0 0
F2 F1- 0.0344(31) 0.0494(28) 0.0106(16) 0.0155(22) 0 0
F3 F1- 0.0186(18) 0.0144(19) 0.0308(20) 0.0043(15) 0 0
F4 F1- 0.0150(17) 0.0075(15) 0.0188(20) 0.0006(15) 0 0
