
#(C) 2017 by FIZ Karlsruhe - Leibniz Institute for Information Infrastructure.  All rights reserved.
data_65250-ICSD
_database_code_ICSD 65250
_audit_creation_date 1989-12-04
_audit_update_record 2012-08-01
_chemical_name_systematic 'Rubidium catena-triiododicuprate(I)'
_chemical_formula_structural 'Rb (Cu2 I3)'
_chemical_formula_sum 'Cu2 I3 Rb1'
_chemical_name_structure_type CsCu2Cl3
_exptl_crystal_density_diffrn 4.8
_publ_section_title

;
Synthese und Strukturuntersuchungen von Iodocupraten(I). IX Synthese und
Kristallstrukturen von Cs3 Cu2 I5 und Rb Cu2 I3
;
loop_
_citation_id
_citation_journal_full
_citation_year
_citation_journal_volume
_citation_page_first
_citation_page_last
_citation_journal_id_ASTM
primary 'Zeitschrift fuer Anorganische und Allgemeine Chemie (1950) (DE)' 1988
563 96 104 ZAACAB
loop_
_publ_author_name
'Bigalke, K.P.'
'Hans, A.'
'Hartl, H.'
_cell_length_a 10.706(7)
_cell_length_b 13.383(8)
_cell_length_c 5.728(3)
_cell_angle_alpha 90.
_cell_angle_beta 90.
_cell_angle_gamma 90.
_cell_volume 820.7
_cell_formula_units_Z 4
_symmetry_space_group_name_H-M 'C m c m'
_symmetry_Int_Tables_number 63
_refine_ls_R_factor_all 0.081
loop_
_symmetry_equiv_pos_site_id
_symmetry_equiv_pos_as_xyz
1 '-x, y, -z+1/2'
2 '-x, -y, z+1/2'
3 '-x, y, z'
4 '-x, -y, -z'
5 'x, -y, z+1/2'
6 'x, y, -z+1/2'
7 'x, -y, -z'
8 'x, y, z'
9 '-x+1/2, y+1/2, -z+1/2'
10 '-x+1/2, -y+1/2, z+1/2'
11 '-x+1/2, y+1/2, z'
12 '-x+1/2, -y+1/2, -z'
13 'x+1/2, -y+1/2, z+1/2'
14 'x+1/2, y+1/2, -z+1/2'
15 'x+1/2, -y+1/2, -z'
16 'x+1/2, y+1/2, z'
loop_
_atom_type_symbol
_atom_type_oxidation_number
Rb1+ 1
Cu1+ 1
I1- -1
loop_
_atom_site_label
_atom_site_type_symbol
_atom_site_symmetry_multiplicity
_atom_site_Wyckoff_symbol
_atom_site_fract_x
_atom_site_fract_y
_atom_site_fract_z
_atom_site_B_iso_or_equiv
_atom_site_occupancy
_atom_site_attached_hydrogens
Rb1 Rb1+ 4 c 0.5 0.1833(5) 0.25 . 1. 0
Cu1 Cu1+ 8 e 0.1600(3) 0 0.5 . 1. 0
I1 I1- 8 g 0.2887(3) 0.1243(3) 0.75 . 1. 0
I2 I1- 4 c 0 0.1156(2) 0.25 . 1. 0
loop_
_atom_site_aniso_label
_atom_site_aniso_type_symbol
_atom_site_aniso_U_11
_atom_site_aniso_U_22
_atom_site_aniso_U_33
_atom_site_aniso_U_12
_atom_site_aniso_U_13
_atom_site_aniso_U_23
Rb1 Rb1+ 0.105(5) 0.091(5) 0.042(3) 0 0 0
Cu1 Cu1+ 0.058(3) 0.053(3) 0.051(3) 0 0 0.010(2)
I1 I1- 0.110(3) 0.188(3) 0.035(2) -.093(3) 0 0
I2 I1- 0.048(2) 0.042(2) 0.036(2) 0 0 0
#End of TTdata_65250-ICSD