
#(C) 2017 by FIZ Karlsruhe - Leibniz Institute for Information Infrastructure, and the U.S. Secretary of
#Commerce on behalf of the United States.  All rights reserved.
data_653456-ICSD
_database_code_ICSD 653456
_audit_creation_date 2013-08-01
_chemical_name_systematic 'Yttrium zinc (3/11)'
_chemical_formula_structural 'Y3 Zn11'
_chemical_formula_sum 'Y3 Zn11'
_chemical_name_structure_type Al11La3
_exptl_crystal_density_diffrn 6.51
_publ_section_title

;
Sur les composes intermetalliques des terres rares avec le zinc autour de la
composition 1:4
;
_publ_section_comment 'Cell and Type only determined'
loop_
_citation_id
_citation_journal_full
_citation_year
_citation_journal_volume
_citation_page_first
_citation_page_last
_citation_journal_id_ASTM
primary
'Colloques Internationaux du Centre National de la Recherche Scientifique' 1970 1 125 133 COINAV
loop_
_publ_author_name
'Bruzzone, G.'
'Fornasini, M.L.'
'Merlo, F.'
_cell_length_a 4.388
_cell_length_b 12.929
_cell_length_c 8.871
_cell_angle_alpha 90.
_cell_angle_beta 90.
_cell_angle_gamma 90.
_cell_volume 503.27
_cell_formula_units_Z 2
_symmetry_space_group_name_H-M 'I m m m'
_symmetry_Int_Tables_number 71
loop_
_symmetry_equiv_pos_site_id
_symmetry_equiv_pos_as_xyz
1 'x, y, -z'
2 'x, -y, z'
3 '-x, y, z'
4 '-x, -y, -z'
5 '-x, -y, z'
6 '-x, y, -z'
7 'x, -y, -z'
8 'x, y, z'
9 'x+1/2, y+1/2, -z+1/2'
10 'x+1/2, -y+1/2, z+1/2'
11 '-x+1/2, y+1/2, z+1/2'
12 '-x+1/2, -y+1/2, -z+1/2'
13 '-x+1/2, -y+1/2, z+1/2'
14 '-x+1/2, y+1/2, -z+1/2'
15 'x+1/2, -y+1/2, -z+1/2'
16 'x+1/2, y+1/2, z+1/2'
loop_
_atom_type_symbol
_atom_type_oxidation_number
Y0+ 0
Zn0+ 0
loop_
_atom_site_label
_atom_site_type_symbol
_atom_site_symmetry_multiplicity
_atom_site_Wyckoff_symbol
_atom_site_fract_x
_atom_site_fract_y
_atom_site_fract_z
_atom_site_B_iso_or_equiv
_atom_site_occupancy
_atom_site_attached_hydrogens
Y1 Y0+ 2 a 0 0 0 . 1. 0
Y2 Y0+ 4 g 0 0.295 0 . 1. 0
Zn1 Zn0+ 2 c 0.5 0.5 0 . 1. 0
Zn2 Zn0+ 4 j 0.5 0 0.687 . 1. 0
Zn3 Zn0+ 8 l 0 0.34 0.354 . 1. 0
Zn4 Zn0+ 8 l 0 0.133 0.287 . 1. 0
#End of TTdata_653456-ICSD