
#(C) 2017 by FIZ Karlsruhe - Leibniz Institute for Information Infrastructure.  All rights reserved.
data_65439-ICSD
_database_code_ICSD 65439
_audit_creation_date 1989-12-04
_audit_update_record 2012-08-01
_chemical_name_systematic 'Thallium dicopper hydroxide bis(selenate) hydrate'
_chemical_formula_structural 'Tl Cu2 (O H) (Se O4)2 (H2 O)'
_chemical_formula_sum 'H3 Cu2 O10 Se2 Tl1'
_chemical_name_structure_type NaCu2OH(SO4)2H2O
_exptl_crystal_density_diffrn 5.07
_publ_section_title

;
The crystal structures of Ag(+) Cu2 (O H) (S O4)2 (H2 O) and Me(+) Cu2 (O H)
(Se O4)2 (H2 O) (Me(+) = Ag, Tl, N H4), four new representatives of the
natrochalcite type, with a note on natural natrochalcite
;
loop_
_citation_id
_citation_journal_full
_citation_year
_citation_journal_volume
_citation_page_first
_citation_page_last
_citation_journal_id_ASTM
primary 'Zeitschrift fuer Kristallographie (1979-2010)' 1989 187 239 247 ZEKRDZ
loop_
_publ_author_name
'Giester, G.'
_cell_length_a 9.244(5)
_cell_length_b 6.491(4)
_cell_length_c 7.916(5)
_cell_angle_alpha 90.
_cell_angle_beta 115.93(3)
_cell_angle_gamma 90.
_cell_volume 427.17
_cell_formula_units_Z 2
_symmetry_space_group_name_H-M 'C 1 2/m 1'
_symmetry_Int_Tables_number 12
_refine_ls_R_factor_all 0.041
loop_
_symmetry_equiv_pos_site_id
_symmetry_equiv_pos_as_xyz
1 '-x, y, -z'
2 '-x, -y, -z'
3 'x, -y, z'
4 'x, y, z'
5 '-x+1/2, y+1/2, -z'
6 '-x+1/2, -y+1/2, -z'
7 'x+1/2, -y+1/2, z'
8 'x+1/2, y+1/2, z'
loop_
_atom_type_symbol
_atom_type_oxidation_number
Tl1+ 1
Cu2+ 2
Se6+ 6
O2- -2
H1+ 1
loop_
_atom_site_label
_atom_site_type_symbol
_atom_site_symmetry_multiplicity
_atom_site_Wyckoff_symbol
_atom_site_fract_x
_atom_site_fract_y
_atom_site_fract_z
_atom_site_B_iso_or_equiv
_atom_site_occupancy
_atom_site_attached_hydrogens
Tl1 Tl1+ 2 d 0 0.5 0.5 . 1. 0
Cu1 Cu2+ 4 e 0.25 0.25 0 . 1. 0
Se1 Se6+ 4 i 0.07197(5) 0 0.27922(6) . 1. 0
O1 O2- 4 i 0.1868(4) 0 0.1676(6) . 1. 0
O2 O2- 4 i 0.1807(5) 0 0.5037(6) . 1. 0
O3 O2- 8 j -.0411(3) 0.2098(4) 0.2166(4) . 1. 0
O4 O2- 4 i 0.1566(4) 0.5 0.0730(6) . 1. 0
loop_
_atom_site_aniso_label
_atom_site_aniso_type_symbol
_atom_site_aniso_U_11
_atom_site_aniso_U_22
_atom_site_aniso_U_33
_atom_site_aniso_U_12
_atom_site_aniso_U_13
_atom_site_aniso_U_23
Tl1 Tl1+ 0.0181(1) 0.0269(2) 0.0120(1) 0 0.0032(1) 0
Cu1 Cu2+ 0.0110(2) 0.0149(2) 0.0121(2) 0.0002(2) 0.0030(2) -.0007(2)
Se1 Se6+ 0.0107(1) 0.0141(2) 0.0080(2) 0 0.0024(1) 0
O1 O2- 0.0190(13) 0.0186(18) 0.0199(15) 0 0.0123(12) 0
O2 O2- 0.0226(16) 0.0379(27) 0.0085(13) 0 -.0002(12) 0
O3 O2- 0.0160(9) 0.0153(11) 0.0148(10) 0.0031(7) 0.0024(8) -.0010(9)
O4 O2- 0.0140(12) 0.0172(17) 0.0171(14) 0 0.0064(11) 0
#End of TTdata_65439-ICSD