
#(C) 2017 by FIZ Karlsruhe - Leibniz Institute for Information Infrastructure.  All rights reserved.
data_65437-ICSD
_database_code_ICSD 65437
_audit_creation_date 1989-12-04
_audit_update_record 2008-02-01
_chemical_name_systematic 'Silver dicopper hydroxide bis(selenate(VI)) hydrate'
_chemical_formula_structural 'Ag Cu2 (O H) (Se O4)2 (H2 O)'
_chemical_formula_sum 'H3 Ag1 Cu2 O10 Se2'
_chemical_name_structure_type NaCu2OH(SO4)2H2O
_exptl_crystal_density_diffrn 4.73
_publ_section_title

;
The crystal structures of Ag(+) Cu2 (O H) (S O4)2 (H2 O) and Me(+) Cu2 (O H)
(Se O4)2 (H2 O) (Me(+) = Ag, Tl, N H4), four new representatives of the
natrochalcite type, with a note on natural natrochalcite
;
loop_
_citation_id
_citation_journal_full
_citation_year
_citation_journal_volume
_citation_page_first
_citation_page_last
_citation_journal_id_ASTM
primary 'Zeitschrift fuer Kristallographie (1979-2010)' 1989 187 239 247 ZEKRDZ
loop_
_publ_author_name
'Giester, G.'
_cell_length_a 9.097(2)
_cell_length_b 6.321(2)
_cell_length_c 7.700(2)
_cell_angle_alpha 90.
_cell_angle_beta 118.24(2)
_cell_angle_gamma 90.
_cell_volume 390.07
_cell_formula_units_Z 2
_symmetry_space_group_name_H-M 'C 1 2/m 1'
_symmetry_Int_Tables_number 12
_refine_ls_R_factor_all 0.035
loop_
_symmetry_equiv_pos_site_id
_symmetry_equiv_pos_as_xyz
1 '-x, y, -z'
2 '-x, -y, -z'
3 'x, -y, z'
4 'x, y, z'
5 '-x+1/2, y+1/2, -z'
6 '-x+1/2, -y+1/2, -z'
7 'x+1/2, -y+1/2, z'
8 'x+1/2, y+1/2, z'
loop_
_atom_type_symbol
_atom_type_oxidation_number
Ag1+ 1
Cu2+ 2
Se6+ 6
O2- -2
H1+ 1
loop_
_atom_site_label
_atom_site_type_symbol
_atom_site_symmetry_multiplicity
_atom_site_Wyckoff_symbol
_atom_site_fract_x
_atom_site_fract_y
_atom_site_fract_z
_atom_site_B_iso_or_equiv
_atom_site_occupancy
_atom_site_attached_hydrogens
Ag1 Ag1+ 2 d 0 0.5 0.5 . 1. 0
Cu1 Cu2+ 4 e 0.25 0.25 0 . 1. 0
Se1 Se6+ 4 i 0.08601(3) 0 0.30014(4) . 1. 0
O1 O2- 4 i 0.1882(3) 0 0.1702(4) . 1. 0
O2 O2- 4 i 0.2203(3) 0 0.5298(3) . 1. 0
O3 O2- 8 j -.0334(2) 0.2142(3) 0.2443(3) . 1. 0
O4 O2- 4 i 0.1558(2) 0.5 0.0710(3) . 1. 0
loop_
_atom_site_aniso_label
_atom_site_aniso_type_symbol
_atom_site_aniso_U_11
_atom_site_aniso_U_22
_atom_site_aniso_U_33
_atom_site_aniso_U_12
_atom_site_aniso_U_13
_atom_site_aniso_U_23
Ag1 Ag1+ 0.0173(1) 0.0265(2) 0.0200(1) 0 0.0069(1) 0
Cu1 Cu2+ 0.0089(1) 0.0092(1) 0.0131(1) 0.0004(1) 0.0030(1) -.0005(1)
Se1 Se6+ 0.0080(1) 0.0098(1) 0.0105(1) 0 0.0032(1) 0
O1 O2- 0.0212(9) 0.0145(9) 0.0253(10) 0 0.0176(8) 0
O2 O2- 0.0211(10) 0.0324(15) 0.0112(7) 0 -.0012(7) 0
O3 O2- 0.0123(5) 0.0129(6) 0.0167(5) 0.0026(5) 0.0035(4) -.0013(5)
O4 O2- 0.0097(6) 0.0120(8) 0.0119(6) 0 0.0046(5) 0
#End of TTdata_65437-ICSD