
data_654666-ICSD
_database_code_ICSD 654666
_audit_creation_date 2008-07-07
_audit_update_record 2017-08-01
_chemical_name_systematic 'Nickel silicide (2/1)'
_chemical_formula_structural 'Ni2 Si'
_chemical_formula_sum 'Ni2 Si1'
_chemical_name_structure_type InNi2
_exptl_crystal_density_diffrn 7.88
_cell_length_a 3.805
_cell_length_b 3.805
_cell_length_c 4.89
_cell_angle_alpha 90.
_cell_angle_beta 90.
_cell_angle_gamma 120.
_cell_volume 61.31
_cell_formula_units_Z 2
_symmetry_space_group_name_H-M 'P 63 2 2'
_symmetry_Int_Tables_number 182
loop_
_symmetry_equiv_pos_site_id
_symmetry_equiv_pos_as_xyz
1 'x, x-y, -z+1/2'
2 '-x+y, y, -z+1/2'
3 '-y, -x, -z+1/2'
4 'x-y, x, z+1/2'
5 'y, -x+y, z+1/2'
6 '-x, -y, z+1/2'
7 '-x, -x+y, -z'
8 'x-y, -y, -z'
9 'y, x, -z'
10 '-x+y, -x, z'
11 '-y, x-y, z'
12 'x, y, z'
loop_
_atom_type_symbol
_atom_type_oxidation_number
Ni0+ 0
Si0+ 0
loop_
_atom_site_label
_atom_site_type_symbol
_atom_site_symmetry_multiplicity
_atom_site_Wyckoff_symbol
_atom_site_fract_x
_atom_site_fract_y
_atom_site_fract_z
_atom_site_B_iso_or_equiv
_atom_site_occupancy
_atom_site_attached_hydrogens
Ni1 Ni0+ 2 a 0 0 0 . 1 0
Ni2 Ni0+ 2 c 0.3333 0.6667 0.25 . 1 0
Si1 Si0+ 2 d 0.3333 0.6667 0.75 . 1 0
