
#(C) 2017 by FIZ Karlsruhe - Leibniz Institute for Information Infrastructure.  All rights reserved.
data_65480-ICSD
_database_code_ICSD 65480
_audit_creation_date 1989-12-04
_chemical_name_systematic 'Dilanthanum pentabromide'
_chemical_formula_structural 'La2 Br5'
_chemical_formula_sum 'Br5 La2'
_chemical_name_structure_type Pr2Br5
_exptl_crystal_density_diffrn 5.
_publ_section_title 'Three bromides of lanthanum: La Br2, La2 Br5, and La Br3'
loop_
_citation_id
_citation_journal_full
_citation_year
_citation_journal_volume
_citation_page_first
_citation_page_last
_citation_journal_id_ASTM
primary 'Zeitschrift fuer Anorganische und Allgemeine Chemie (1950) (DE)' 1989
575 61 70 ZAACAB
loop_
_publ_author_name
'Kraemer, K.'
'Schleid, T.'
'Schulze, M.'
'Urland, W.'
'Meyer, G.'
_cell_length_a 7.8909(6)
_cell_length_b 4.2489(4)
_cell_length_c 13.423(1)
_cell_angle_alpha 90.
_cell_angle_beta 91.60(1)
_cell_angle_gamma 90.
_cell_volume 449.87
_cell_formula_units_Z 2
_symmetry_space_group_name_H-M 'P 1 21/m 1'
_symmetry_Int_Tables_number 11
_refine_ls_R_factor_all 0.067
loop_
_symmetry_equiv_pos_site_id
_symmetry_equiv_pos_as_xyz
1 'x, -y+1/2, z'
2 '-x, -y, -z'
3 '-x, y+1/2, -z'
4 'x, y, z'
loop_
_atom_type_symbol
_atom_type_oxidation_number
La3+ 3
La2+ 2
Br1- -1
loop_
_atom_site_label
_atom_site_type_symbol
_atom_site_symmetry_multiplicity
_atom_site_Wyckoff_symbol
_atom_site_fract_x
_atom_site_fract_y
_atom_site_fract_z
_atom_site_B_iso_or_equiv
_atom_site_occupancy
_atom_site_attached_hydrogens
La1 La3+ 2 e 0.4217(1) 0.25 0.66277(8) . 1. 0
La2 La2+ 2 e 0.9247(1) 0.25 0.16441(8) . 1. 0
Br1 Br1- 2 e 0.6872(2) 0.25 0.4921(1) . 1. 0
Br2 Br1- 2 e 0.0395(2) 0.25 0.6738(1) . 1. 0
Br3 Br1- 2 e 0.3458(2) 0.25 0.8857(1) . 1. 0
Br4 Br1- 2 e 0.8537(2) 0.25 0.9295(1) . 1. 0
Br5 Br1- 2 e 0.3232(3) 0.25 0.2702(2) . 1. 0
loop_
_atom_site_aniso_label
_atom_site_aniso_type_symbol
_atom_site_aniso_U_11
_atom_site_aniso_U_22
_atom_site_aniso_U_33
_atom_site_aniso_U_12
_atom_site_aniso_U_13
_atom_site_aniso_U_23
La1 La3+ 0.0123(5) 0.0128(6) 0.0085(5) 0 0.0024(4) 0
La2 La2+ 0.0174(5) 0.0109(6) 0.0122(5) 0 0.0060(4) 0
Br1 Br1- 0.0174(9) 0.0194(10) 0.0104(8) 0 0.0027(7) 0
Br2 Br1- 0.0142(8) 0.0198(10) 0.0116(9) 0 0.0010(6) 0
Br3 Br1- 0.0185(9) 0.0203(10) 0.0110(8) 0 0.0020(7) 0
Br4 Br1- 0.0173(9) 0.0179(9) 0.0110(8) 0 0.0040(7) 0
Br5 Br1- 0.0171(9) 0.0154(10) 0.0227(10) 0 -.0037(7) 0
#End of TTdata_65480-ICSD