
#(C) 2017 by FIZ Karlsruhe - Leibniz Institute for Information Infrastructure, and the U.S. Secretary of
#Commerce on behalf of the United States.  All rights reserved.
data_655007-ICSD
_database_code_ICSD 655007
_audit_creation_date 2008-07-07
_audit_update_record 2017-08-01
_chemical_name_systematic 'Aluminium carbide nitride (8/3/4)'
_chemical_formula_structural 'Al8 C3 N4'
_chemical_formula_sum 'C3 Al8 N4'
_chemical_name_structure_type Al8C3N4
_exptl_crystal_density_diffrn 3.12
_publ_section_title 'The structures of the aluminum carbonitrides. II'
loop_
_citation_id
_citation_journal_full
_citation_year
_citation_journal_volume
_citation_page_first
_citation_page_last
_citation_journal_id_ASTM
primary 'Acta Crystallographica (1,1948-23,1967)' 1966 20 538 547 ACCRA9
loop_
_publ_author_name
'Jeffrey, G.A.'
'Wu, Viktor Y.'
_cell_length_a 3.211
_cell_length_b 3.211
_cell_length_c 55.08
_cell_angle_alpha 90.
_cell_angle_beta 90.
_cell_angle_gamma 120.
_cell_volume 491.82
_cell_formula_units_Z 3
_symmetry_space_group_name_H-M 'R 3 m H'
_symmetry_Int_Tables_number 160
_refine_ls_R_factor_all 0.17
loop_
_symmetry_equiv_pos_site_id
_symmetry_equiv_pos_as_xyz
1 '-x+y, y, z'
2 'x, x-y, z'
3 '-y, -x, z'
4 '-x+y, -x, z'
5 '-y, x-y, z'
6 'x, y, z'
7 '-x+y+2/3, y+1/3, z+1/3'
8 'x+2/3, x-y+1/3, z+1/3'
9 '-y+2/3, -x+1/3, z+1/3'
10 '-x+y+2/3, -x+1/3, z+1/3'
11 '-y+2/3, x-y+1/3, z+1/3'
12 'x+2/3, y+1/3, z+1/3'
13 '-x+y+1/3, y+2/3, z+2/3'
14 'x+1/3, x-y+2/3, z+2/3'
15 '-y+1/3, -x+2/3, z+2/3'
16 '-x+y+1/3, -x+2/3, z+2/3'
17 '-y+1/3, x-y+2/3, z+2/3'
18 'x+1/3, y+2/3, z+2/3'
loop_
_atom_type_symbol
_atom_type_oxidation_number
Al0+ 0
C0+ 0
N0+ 0
loop_
_atom_site_label
_atom_site_type_symbol
_atom_site_symmetry_multiplicity
_atom_site_Wyckoff_symbol
_atom_site_fract_x
_atom_site_fract_y
_atom_site_fract_z
_atom_site_B_iso_or_equiv
_atom_site_occupancy
_atom_site_attached_hydrogens
Al1 Al0+ 3 a 0 0 0.6852(10) 0.5(3) 1 0
Al2 Al0+ 3 a 0 0 0.0633(10) 0.4(3) 1 0
Al3 Al0+ 3 a 0 0 0.7752(10) 0.1(3) 1 0
Al4 Al0+ 3 a 0 0 0.1494(10) 0.6(3) 1 0
Al5 Al0+ 3 a 0 0 0.8522(10) 0.8(3) 1 0
Al6 Al0+ 3 a 0 0 0.2268(10) 0.4(3) 1 0
Al7 Al0+ 3 a 0 0 0.9365(2) 0.2(3) 1 0
Al8 Al0+ 3 a 0 0 0.3150(3) 0.3(3) 1 0
C1 C0+ 3 a 0 0 0.0000(18) 0.9(7) 1 0
C2 C0+ 3 a 0 0 0.8112(18) 1.2(7) 1 0
C3 C0+ 3 a 0 0 0.1898(18) 1.0(7) 1 0
N1 N0+ 3 a 0 0 0.7212(18) 0.5(7) 1 0
N2 N0+ 3 a 0 0 0.0993(18) 0.8(7) 1 0
N3 N0+ 3 a 0 0 0.9005(18) 0.1(7) 1 0
N4 N0+ 3 a 0 0 0.2788(18) 0.6(7) 1 0
#End of TTdata_655007-ICSD