
data_655498-ICSD
_database_code_ICSD 655498
_audit_creation_date 2008-07-07
_audit_update_record 2009-08-01
_chemical_name_systematic 'Nickel selenide (3/2)'
_chemical_formula_structural 'Ni3 Se2'
_chemical_formula_sum 'Ni3 Se2'
_chemical_name_structure_type Ni3S2
_exptl_crystal_density_diffrn 7.29
_cell_length_a 6.029
_cell_length_b 6.029
_cell_length_c 7.249
_cell_angle_alpha 90.
_cell_angle_beta 90.
_cell_angle_gamma 120.
_cell_volume 228.19
_cell_formula_units_Z 3
_symmetry_space_group_name_H-M 'R 3 2 H'
_symmetry_Int_Tables_number 155
loop_
_symmetry_equiv_pos_site_id
_symmetry_equiv_pos_as_xyz
1 '-x, -x+y, -z'
2 'x-y, -y, -z'
3 'y, x, -z'
4 '-x+y, -x, z'
5 '-y, x-y, z'
6 'x, y, z'
7 '-x+2/3, -x+y+1/3, -z+1/3'
8 'x-y+2/3, -y+1/3, -z+1/3'
9 'y+2/3, x+1/3, -z+1/3'
10 '-x+y+2/3, -x+1/3, z+1/3'
11 '-y+2/3, x-y+1/3, z+1/3'
12 'x+2/3, y+1/3, z+1/3'
13 '-x+1/3, -x+y+2/3, -z+2/3'
14 'x-y+1/3, -y+2/3, -z+2/3'
15 'y+1/3, x+2/3, -z+2/3'
16 '-x+y+1/3, -x+2/3, z+2/3'
17 '-y+1/3, x-y+2/3, z+2/3'
18 'x+1/3, y+2/3, z+2/3'
loop_
_atom_type_symbol
_atom_type_oxidation_number
Ni0+ 0
Se0+ 0
loop_
_atom_site_label
_atom_site_type_symbol
_atom_site_symmetry_multiplicity
_atom_site_Wyckoff_symbol
_atom_site_fract_x
_atom_site_fract_y
_atom_site_fract_z
_atom_site_B_iso_or_equiv
_atom_site_occupancy
_atom_site_attached_hydrogens
Ni1 Ni0+ 9 d 0.25 0 0 . 1 0
Se1 Se0+ 6 c 0 0 0.26 . 1 0
