
data_655673-ICSD
_database_code_ICSD 655673
_audit_creation_date 2008-08-01
_audit_update_record 2017-08-01
_chemical_name_systematic 'Trilithium dinitridoborate'
_chemical_formula_structural 'Li3 (B N2)'
_chemical_formula_sum 'B1 Li3 N2'
_chemical_name_structure_type Li3BN2
_exptl_crystal_density_diffrn 1.75
_cell_length_a 4.6435(2)
_cell_length_b 4.6435(2)
_cell_length_c 5.2592(5)
_cell_angle_alpha 90.
_cell_angle_beta 90.
_cell_angle_gamma 90.
_cell_volume 113.4
_cell_formula_units_Z 2
_symmetry_space_group_name_H-M 'P 42 21 2'
_symmetry_Int_Tables_number 94
_refine_ls_R_factor_all 0.042
loop_
_symmetry_equiv_pos_site_id
_symmetry_equiv_pos_as_xyz
1 '-y+1/2, x+1/2, z+1/2'
2 'y+1/2, -x+1/2, z+1/2'
3 '-y, -x, -z'
4 'y, x, -z'
5 'x+1/2, -y+1/2, -z+1/2'
6 '-x+1/2, y+1/2, -z+1/2'
7 '-x, -y, z'
8 'x, y, z'
loop_
_atom_type_symbol
_atom_type_oxidation_number
B3+ 3
Li1+ 1
N3- -3
loop_
_atom_site_label
_atom_site_type_symbol
_atom_site_symmetry_multiplicity
_atom_site_Wyckoff_symbol
_atom_site_fract_x
_atom_site_fract_y
_atom_site_fract_z
_atom_site_B_iso_or_equiv
_atom_site_occupancy
_atom_site_attached_hydrogens
B1 B3+ 2 a 0 0 0 . 1 0
Li1 Li1+ 2 b 0 0 0.5 . 1 0
Li2 Li1+ 4 d 0 0.5 0.25 . 1 0
N1 N3- 4 f 0.2962(3) 0.2962(3) 0.5 . 1 0
