
#(C) 2017 by FIZ Karlsruhe - Leibniz Institute for Information Infrastructure, and the U.S. Secretary of
#Commerce on behalf of the United States.  All rights reserved.
data_656265-ICSD
_database_code_ICSD 656265
_audit_creation_date 2012-08-01
_chemical_name_systematic 'Lanthanum manganese stannide (3/4/4)'
_chemical_formula_structural 'La3 Mn4 Sn4'
_chemical_formula_sum 'La3 Mn4 Sn4'
_chemical_name_structure_type Cu4Zr3Si4
_exptl_crystal_density_diffrn 6.83
_publ_section_title

;
Crystal chemistry and magnetic behavior of compounds RE3 Mn4 Sn4, RE = La, Ce,
Pr, Nd, Sm and MM (Mischmetal)
;
_publ_section_comment 'Cell and Type only determined'
loop_
_citation_id
_citation_journal_full
_citation_year
_citation_journal_volume
_citation_page_first
_citation_page_last
_citation_journal_id_ASTM
primary 'Berichte der Bunsengesellschaft fuer Physikalische Chemie' 1992 96 1715
1717 BBPCAX
loop_
_publ_author_name
'Weitzer, F.'
'Hiebl, K.'
'Rogl, P.'
'Noel, H.'
_cell_length_a 15.367(6)
_cell_length_b 7.512(2)
_cell_length_c 4.682(1)
_cell_angle_alpha 90.
_cell_angle_beta 90.
_cell_angle_gamma 90.
_cell_volume 540.48
_cell_formula_units_Z 2
_symmetry_space_group_name_H-M 'I m m m'
_symmetry_Int_Tables_number 71
loop_
_symmetry_equiv_pos_site_id
_symmetry_equiv_pos_as_xyz
1 'x, y, -z'
2 'x, -y, z'
3 '-x, y, z'
4 '-x, -y, -z'
5 '-x, -y, z'
6 '-x, y, -z'
7 'x, -y, -z'
8 'x, y, z'
9 'x+1/2, y+1/2, -z+1/2'
10 'x+1/2, -y+1/2, z+1/2'
11 '-x+1/2, y+1/2, z+1/2'
12 '-x+1/2, -y+1/2, -z+1/2'
13 '-x+1/2, -y+1/2, z+1/2'
14 '-x+1/2, y+1/2, -z+1/2'
15 'x+1/2, -y+1/2, -z+1/2'
16 'x+1/2, y+1/2, z+1/2'
loop_
_atom_type_symbol
_atom_type_oxidation_number
La0+ 0
Mn0+ 0
Sn0+ 0
loop_
_atom_site_label
_atom_site_type_symbol
_atom_site_symmetry_multiplicity
_atom_site_Wyckoff_symbol
_atom_site_fract_x
_atom_site_fract_y
_atom_site_fract_z
_atom_site_B_iso_or_equiv
_atom_site_occupancy
_atom_site_attached_hydrogens
La1 La0+ 2 d 0 0.5 0 . 1. 0
La2 La0+ 4 e 0.13 0 0 . 1. 0
Mn1 Mn0+ 8 n 0.331 0.189 0 . 1. 0
Sn1 Sn0+ 4 f 0.218 0.5 0 . 1. 0
Sn2 Sn0+ 4 h 0 0.201 0.5 . 1. 0
#End of TTdata_656265-ICSD