
#(C) 2017 by FIZ Karlsruhe - Leibniz Institute for Information Infrastructure, and the U.S. Secretary of
#Commerce on behalf of the United States.  All rights reserved.
data_656959-ICSD
_database_code_ICSD 656959
_audit_creation_date 2012-08-01
_chemical_name_systematic 'Lanthanum palladium gallide (1/2/1)'
_chemical_formula_structural 'La Pd2 Ga'
_chemical_formula_sum 'Ga1 La1 Pd2'
_chemical_name_structure_type ErPd2Si
_exptl_crystal_density_diffrn 8.9
_publ_section_title
'On new ternary gallides Ln Pd2 Ga with the Y Pd2 Si - type structure'
_publ_section_comment 'Cell and Type only determined'
loop_
_citation_id
_citation_journal_full
_citation_year
_citation_journal_volume
_citation_page_first
_citation_page_last
_citation_journal_id_ASTM
primary 'Journal of Alloys and Compounds' 1992 190 125 128 JALCEU
loop_
_publ_author_name
'Hulliger, F.'
'Mattenberger, K.'
'Siegrist, S.'
_cell_length_a 7.5759(6)
_cell_length_b 7.0598(4)
_cell_length_c 5.8782(4)
_cell_angle_alpha 90.
_cell_angle_beta 90.
_cell_angle_gamma 90.
_cell_volume 314.39
_cell_formula_units_Z 4
_symmetry_space_group_name_H-M 'P n m a'
_symmetry_Int_Tables_number 62
loop_
_symmetry_equiv_pos_site_id
_symmetry_equiv_pos_as_xyz
1 'x+1/2, y, -z+1/2'
2 'x, -y+1/2, z'
3 '-x+1/2, y+1/2, z+1/2'
4 '-x, -y, -z'
5 '-x+1/2, -y, z+1/2'
6 '-x, y+1/2, -z'
7 'x+1/2, -y+1/2, -z+1/2'
8 'x, y, z'
loop_
_atom_type_symbol
_atom_type_oxidation_number
Pd0+ 0
La0+ 0
Ga0+ 0
loop_
_atom_site_label
_atom_site_type_symbol
_atom_site_symmetry_multiplicity
_atom_site_Wyckoff_symbol
_atom_site_fract_x
_atom_site_fract_y
_atom_site_fract_z
_atom_site_B_iso_or_equiv
_atom_site_occupancy
_atom_site_attached_hydrogens
Pd1 Pd0+ 8 d 0.177 0.053 0.088 . 1. 0
La1 La0+ 4 c 0.033 0.25 0.65 . 1. 0
Ga1 Ga0+ 4 c 0.379 0.25 0.348 . 1. 0
#End of TTdata_656959-ICSD