
#(C) 2017 by FIZ Karlsruhe - Leibniz Institute for Information Infrastructure, and the U.S. Secretary of
#Commerce on behalf of the United States.  All rights reserved.
data_658051-ICSD
_database_code_ICSD 658051
_audit_creation_date 2013-08-01
_chemical_name_systematic 'Platinum yttrium gallide (2/3/9)'
_chemical_formula_structural 'Pt2 Y3 Ga9'
_chemical_formula_sum 'Ga9 Pt2 Y3'
_chemical_name_structure_type Al11La3
_exptl_crystal_density_diffrn 8.07
_publ_section_title

;
Crystal chemistry and magnetic beaviour of the ternary compounds RE3 (Au, Pt)x
Ga11-x (RE = Y, Gd, Tb, Dy, Ho, Er, Tm and Yb)
;
_publ_section_comment 'Cell and Type only determined'
loop_
_citation_id
_citation_journal_full
_citation_year
_citation_journal_volume
_citation_page_first
_citation_page_last
_citation_journal_id_ASTM
primary 'Journal of Alloys and Compounds' 1994 205 285 289 JALCEU
loop_
_publ_author_name
'Grin', Yu.N.'
'Ellner, M.'
'Hiebl, K.'
'Rogl, P.'
'Sichevich, O.M.'
'Myakush, O.M.'
_cell_length_a 4.3098(4)
_cell_length_b 12.850(1)
_cell_length_c 9.550(1)
_cell_angle_alpha 90.
_cell_angle_beta 90.
_cell_angle_gamma 90.
_cell_volume 528.89
_cell_formula_units_Z 2
_symmetry_space_group_name_H-M 'I m m m'
_symmetry_Int_Tables_number 71
loop_
_symmetry_equiv_pos_site_id
_symmetry_equiv_pos_as_xyz
1 'x, y, -z'
2 'x, -y, z'
3 '-x, y, z'
4 '-x, -y, -z'
5 '-x, -y, z'
6 '-x, y, -z'
7 'x, -y, -z'
8 'x, y, z'
9 'x+1/2, y+1/2, -z+1/2'
10 'x+1/2, -y+1/2, z+1/2'
11 '-x+1/2, y+1/2, z+1/2'
12 '-x+1/2, -y+1/2, -z+1/2'
13 '-x+1/2, -y+1/2, z+1/2'
14 '-x+1/2, y+1/2, -z+1/2'
15 'x+1/2, -y+1/2, -z+1/2'
16 'x+1/2, y+1/2, z+1/2'
loop_
_atom_type_symbol
_atom_type_oxidation_number
Y0+ 0
Ga0+ 0
Pt0+ 0
Ga0+ 0
loop_
_atom_site_label
_atom_site_type_symbol
_atom_site_symmetry_multiplicity
_atom_site_Wyckoff_symbol
_atom_site_fract_x
_atom_site_fract_y
_atom_site_fract_z
_atom_site_B_iso_or_equiv
_atom_site_occupancy
_atom_site_attached_hydrogens
Y1 Y0+ 2 a 0 0 0 . 1. 0
Y2 Y0+ 4 g 0 0.3 0 . 1. 0
Ga1 Ga0+ 2 c 0.5 0.5 0 . 1. 0
Pt1 Pt0+ 4 j 0.5 0 0.691 . 1. 0
Ga2 Ga0+ 8 l 0 0.342 0.368 . 1. 0
Ga3 Ga0+ 8 l 0 0.143 0.279 . 1. 0
#End of TTdata_658051-ICSD