
#(C) 2017 by FIZ Karlsruhe - Leibniz Institute for Information Infrastructure, and the U.S. Secretary of
#Commerce on behalf of the United States.  All rights reserved.
data_658794-ICSD
_database_code_ICSD 658794
_audit_creation_date 2013-08-01
_chemical_name_systematic 'Lanthanum antimonide selenide (1/1/1)'
_chemical_formula_structural 'La Sb Se'
_chemical_formula_sum 'La1 Sb1 Se1'
_chemical_name_structure_type CeAsS
_exptl_crystal_density_diffrn 6.11
_publ_section_title
'Synthesis and characterization of chalcopnictides of rare-earth elements'
_publ_section_comment 'Cell and Type only determined'
loop_
_citation_id
_citation_journal_full
_citation_year
_citation_journal_volume
_citation_page_first
_citation_page_last
_citation_journal_id_ASTM
primary 'Russian Journal of Inorganic Chemistry' 1994 39 194 195 RJICAQ
loop_
_publ_author_name
'Ibragimova, S.G.'
'Aliev, F.G.'
'Aliev, O.M.'
'Mamedov, V.N.'
'Ibragimov, Z.A.'
_cell_length_a 4.62
_cell_length_b 17.96
_cell_length_c 6.64
_cell_angle_alpha 90.
_cell_angle_beta 137.9
_cell_angle_gamma 90.
_cell_volume 369.38
_cell_formula_units_Z 4
_symmetry_space_group_name_H-M 'P 1 21/c 1'
_symmetry_Int_Tables_number 14
loop_
_symmetry_equiv_pos_site_id
_symmetry_equiv_pos_as_xyz
1 'x, -y+1/2, z+1/2'
2 '-x, -y, -z'
3 '-x, y+1/2, -z+1/2'
4 'x, y, z'
loop_
_atom_type_symbol
_atom_type_oxidation_number
La3+ 3
Sb1- -1
Se2- -2
loop_
_atom_site_label
_atom_site_type_symbol
_atom_site_symmetry_multiplicity
_atom_site_Wyckoff_symbol
_atom_site_fract_x
_atom_site_fract_y
_atom_site_fract_z
_atom_site_B_iso_or_equiv
_atom_site_occupancy
_atom_site_attached_hydrogens
La1 La3+ 4 e 0.016 0.357 0.27 . 1. 0
Sb1 Sb1- 4 e 0.55 0.002 0.299 . 1. 0
Se1 Se2- 4 e 0.005 0.187 0.265 . 1. 0
#End of TTdata_658794-ICSD