
data_658805-ICSD
_database_code_ICSD 658805
_audit_creation_date 2012-08-01
_chemical_name_systematic 'Yttrium rhenium carbide (12/5/15)'
_chemical_formula_structural 'Y12 Re5 C15'
_chemical_formula_sum 'C15 Re5 Y12'
_chemical_name_structure_type Dy12Mn5C15
_exptl_crystal_density_diffrn 7.17
_cell_length_a 10.721(2)
_cell_length_b 10.721(2)
_cell_length_c 5.067(2)
_cell_angle_alpha 90.
_cell_angle_beta 90.
_cell_angle_gamma 120.
_cell_volume 504.37
_cell_formula_units_Z 1
_symmetry_space_group_name_H-M 'P -6 2 m'
_symmetry_Int_Tables_number 189
loop_
_symmetry_equiv_pos_site_id
_symmetry_equiv_pos_as_xyz
1 '-x, -x+y, -z'
2 'x-y, -y, -z'
3 'y, x, -z'
4 '-x, -x+y, z'
5 'x-y, -y, z'
6 'y, x, z'
7 '-x+y, -x, -z'
8 '-y, x-y, -z'
9 'x, y, -z'
10 '-x+y, -x, z'
11 '-y, x-y, z'
12 'x, y, z'
loop_
_atom_type_symbol
_atom_type_oxidation_number
Y0+ 0
Re0+ 0
C0+ 0
loop_
_atom_site_label
_atom_site_type_symbol
_atom_site_symmetry_multiplicity
_atom_site_Wyckoff_symbol
_atom_site_fract_x
_atom_site_fract_y
_atom_site_fract_z
_atom_site_B_iso_or_equiv
_atom_site_occupancy
_atom_site_attached_hydrogens
Y1 Y0+ 6 j 0.27 0.456 0 . 1. 0
Y2 Y0+ 3 g 0.425 0 0.5 . 1. 0
Y3 Y0+ 3 g 0.797 0 0.5 . 1. 0
Re1 Re0+ 3 f 0.154 0 0 . 1. 0
Re2 Re0+ 2 d 0.3333 0.6667 0.5 . 1. 0
C1 C0+ 6 k 0.277 0.47 0.5 . 1. 0
