
#(C) 2017 by FIZ Karlsruhe - Leibniz Institute for Information Infrastructure.  All rights reserved.
data_66017-ICSD
_database_code_ICSD 66017
_audit_creation_date 1990-12-27
_audit_update_record 1999-11-30
_chemical_name_systematic 'Barium copper arsenide (1/8/4)'
_chemical_formula_structural 'Ba Cu8 As4'
_chemical_formula_sum 'As4 Ba1 Cu8'
_chemical_name_structure_type Nb5Cu4Si4
_exptl_crystal_density_diffrn 7.24
_publ_section_title

;
Ba Cu8 P4 und Ba Cu8 As4: Darstellung, Strukturbestimmung und
elektronenmikroskopische Untersuchungen
;
loop_
_citation_id
_citation_journal_full
_citation_year
_citation_journal_volume
_citation_page_first
_citation_page_last
_citation_journal_id_ASTM
primary 'Zeitschrift fuer Anorganische und Allgemeine Chemie (1950) (DE)' 1990
588 109 116 ZAACAB
loop_
_publ_author_name
'Pilchowski, I.'
'Mewis, A.'
'Wenzel, M.'
'Gruehn, R.'
_cell_length_a 10.455(2)
_cell_length_b 10.455(2)
_cell_length_c 3.969(1)
_cell_angle_alpha 90.
_cell_angle_beta 90.
_cell_angle_gamma 90.
_cell_volume 433.84
_cell_formula_units_Z 2
_symmetry_space_group_name_H-M 'I 4/m'
_symmetry_Int_Tables_number 87
_refine_ls_R_factor_all 0.021
loop_
_symmetry_equiv_pos_site_id
_symmetry_equiv_pos_as_xyz
1 '-y, x, -z'
2 'y, -x, -z'
3 'x, y, -z'
4 '-x, -y, -z'
5 'y, -x, z'
6 '-y, x, z'
7 '-x, -y, z'
8 'x, y, z'
9 '-y+1/2, x+1/2, -z+1/2'
10 'y+1/2, -x+1/2, -z+1/2'
11 'x+1/2, y+1/2, -z+1/2'
12 '-x+1/2, -y+1/2, -z+1/2'
13 'y+1/2, -x+1/2, z+1/2'
14 '-y+1/2, x+1/2, z+1/2'
15 '-x+1/2, -y+1/2, z+1/2'
16 'x+1/2, y+1/2, z+1/2'
loop_
_atom_type_symbol
_atom_type_oxidation_number
Ba2+ 2
Cu1+ 1.25
As3- -3
loop_
_atom_site_label
_atom_site_type_symbol
_atom_site_symmetry_multiplicity
_atom_site_Wyckoff_symbol
_atom_site_fract_x
_atom_site_fract_y
_atom_site_fract_z
_atom_site_B_iso_or_equiv
_atom_site_occupancy
_atom_site_attached_hydrogens
Ba1 Ba2+ 2 a 0 0 0 . 1. 0
Cu1 Cu1+ 8 h 0.2150(1) 0.6720(1) 0 . 1. 0
Cu2 Cu1+ 8 h 0.0179(1) 0.3712(1) 0 . 1. 0
As1 As3- 8 h 0.2420(1) 0.4289(1) 0 . 1. 0
loop_
_atom_site_aniso_label
_atom_site_aniso_type_symbol
_atom_site_aniso_U_11
_atom_site_aniso_U_22
_atom_site_aniso_U_33
_atom_site_aniso_U_12
_atom_site_aniso_U_13
_atom_site_aniso_U_23
Ba1 Ba2+ 0.0157(4) 0.0157(4) 0.0110(5) 0 0 0
Cu1 Cu1+ 0.0109(6) 0.0167(6) 0.0143(5) -.0053(5) 0 0
Cu2 Cu1+ 0.0095(5) 0.0167(6) 0.0108(5) -.0039(4) 0 0
As1 As3- 0.0089(4) 0.0088(4) 0.0071(4) -.0007(3) 0 0
#End of TTdata_66017-ICSD