
#(C) 2017 by FIZ Karlsruhe - Leibniz Institute for Information Infrastructure.  All rights reserved.
data_66279-ICSD
_database_code_ICSD 66279
_audit_creation_date 1992-08-20
_chemical_name_systematic 'Gallium chromium selenide'
_chemical_formula_structural 'Ga Cr Se3'
_chemical_formula_sum 'Cr1 Ga1 Se3'
_chemical_name_structure_type CuTaS3
_exptl_crystal_density_diffrn 5.09
_publ_section_title
'Kristallstrukturen sowie FIR- und Ramanspektren von GaCrSe3'
loop_
_citation_id
_citation_journal_full
_citation_year
_citation_journal_volume
_citation_page_first
_citation_page_last
_citation_journal_id_ASTM
primary 'Zeitschrift fuer Anorganische und Allgemeine Chemie (1950) (DE)' 1988
566 55 61 ZAACAB
loop_
_publ_author_name
'Lutz, H.D.'
'Engelen, B.'
'Fischer, M.'
'Jung, M.'
_cell_length_a 10.1182(7)
_cell_length_b 3.7345(3)
_cell_length_c 12.392(1)
_cell_angle_alpha 90.
_cell_angle_beta 90.
_cell_angle_gamma 90.
_cell_volume 468.25
_cell_formula_units_Z 4
_symmetry_space_group_name_H-M 'P n m a'
_symmetry_Int_Tables_number 62
_refine_ls_R_factor_all 0.016
loop_
_symmetry_equiv_pos_site_id
_symmetry_equiv_pos_as_xyz
1 'x+1/2, y, -z+1/2'
2 'x, -y+1/2, z'
3 '-x+1/2, y+1/2, z+1/2'
4 '-x, -y, -z'
5 '-x+1/2, -y, z+1/2'
6 '-x, y+1/2, -z'
7 'x+1/2, -y+1/2, -z+1/2'
8 'x, y, z'
loop_
_atom_type_symbol
_atom_type_oxidation_number
Ga3+ 3
Cr3+ 3
Se2- -2
loop_
_atom_site_label
_atom_site_type_symbol
_atom_site_symmetry_multiplicity
_atom_site_Wyckoff_symbol
_atom_site_fract_x
_atom_site_fract_y
_atom_site_fract_z
_atom_site_B_iso_or_equiv
_atom_site_occupancy
_atom_site_attached_hydrogens
Ga1 Ga3+ 4 c 0.26926(4) 0.75 0.20520(3) . 1. 0
Cr1 Cr3+ 4 c 0.40252(6) 0.25 0.38918(5) . 1. 0
Se1 Se2- 4 c 0.57443(3) 0.75 0.40548(3) . 1. 0
Se2 Se2- 4 c 0.41536(4) 0.25 0.17958(3) . 1. 0
Se3 Se2- 4 c 0.23073(4) 0.75 0.39487(3) . 1. 0
loop_
_atom_site_aniso_label
_atom_site_aniso_type_symbol
_atom_site_aniso_U_11
_atom_site_aniso_U_22
_atom_site_aniso_U_33
_atom_site_aniso_U_12
_atom_site_aniso_U_13
_atom_site_aniso_U_23
Ga1 Ga3+ 0.0121(2) 0.0111(2) 0.0122(2) -.0036(1) 0 0
Cr1 Cr3+ 0.0098(2) 0.0092(2) 0.0086(2) -.0008(2) 0 0
Se1 Se2- 0.0076(1) 0.0097(1) 0.0082(1) 0.0006(1) 0 0
Se2 Se2- 0.0116(1) 0.0109(1) 0.0118(1) -.0003(1) 0 0
Se3 Se2- 0.0094(1) 0.0120(1) 0.0120(1) -.0002(1) 0 0
#End of TTdata_66279-ICSD