
data_66580-ICSD
_database_code_ICSD 66580
_audit_creation_date 1994-01-19
_audit_update_record 2015-02-01
_chemical_name_systematic 'Copper(I) silver sulfide'
_chemical_formula_structural 'Cu Ag S'
_chemical_formula_sum 'Ag1 Cu1 S1'
_chemical_name_structure_type AgCuS
_chemical_name_mineral Stromeyerite
_exptl_crystal_density_diffrn 6.32
_cell_measurement_temperature 298.
_cell_length_a 4.059(2)
_cell_length_b 6.617(4)
_cell_length_c 7.967(2)
_cell_angle_alpha 90.
_cell_angle_beta 90.
_cell_angle_gamma 90.
_cell_volume 213.98
_cell_formula_units_Z 4
_symmetry_space_group_name_H-M 'C m c 21'
_symmetry_Int_Tables_number 36
_refine_ls_R_factor_all 0.061
loop_
_symmetry_equiv_pos_site_id
_symmetry_equiv_pos_as_xyz
1 'x, -y, z+1/2'
2 '-x, -y, z+1/2'
3 '-x, y, z'
4 'x, y, z'
5 'x+1/2, -y+1/2, z+1/2'
6 '-x+1/2, -y+1/2, z+1/2'
7 '-x+1/2, y+1/2, z'
8 'x+1/2, y+1/2, z'
loop_
_atom_type_symbol
_atom_type_oxidation_number
Ag1+ 1
Cu1+ 1
S2- -2
loop_
_atom_site_label
_atom_site_type_symbol
_atom_site_symmetry_multiplicity
_atom_site_Wyckoff_symbol
_atom_site_fract_x
_atom_site_fract_y
_atom_site_fract_z
_atom_site_B_iso_or_equiv
_atom_site_occupancy
_atom_site_attached_hydrogens
Ag1 Ag1+ 4 a 0.5 0.495(2) 0.5 . 1. 0
Cu1 Cu1+ 4 a 0 0.4328(3) 0.2486(11) . 1. 0
S1 S2- 4 a 0.5 0.2859(6) 0.2484(15) . 1. 0
loop_
_atom_site_aniso_label
_atom_site_aniso_type_symbol
_atom_site_aniso_U_11
_atom_site_aniso_U_22
_atom_site_aniso_U_33
_atom_site_aniso_U_12
_atom_site_aniso_U_13
_atom_site_aniso_U_23
Ag1 Ag1+ 0.0360(8) 0.144(3) 0.0361(9) 0 0 -0.0483(12)
Cu1 Cu1+ 0.0157(8) 0.0314(12) 0.0333(12) 0 0 -0.010(2)
S1 S2- 0.0135(12) 0.0156(14) 0.032(2) 0 0 0.000(3)
