
data_66592-ICSD
_database_code_ICSD 66592
_audit_creation_date 1994-01-19
_audit_update_record 2004-10-01
_chemical_name_systematic 'Germanium oxide'
_chemical_formula_structural 'Ge O2'
_chemical_formula_sum 'Ge1 O2'
_chemical_name_structure_type Quartz,low
_exptl_crystal_density_diffrn 4.29
_cell_measurement_pressure 100.
_cell_length_a 4.9858(2)
_cell_length_b 4.9858(2)
_cell_length_c 5.6473(2)
_cell_angle_alpha 90.
_cell_angle_beta 90.
_cell_angle_gamma 120.
_cell_volume 121.57
_cell_formula_units_Z 3
_symmetry_space_group_name_H-M 'P 32 2 1'
_symmetry_Int_Tables_number 154
_refine_ls_R_factor_all 0.048
loop_
_symmetry_equiv_pos_site_id
_symmetry_equiv_pos_as_xyz
1 '-x, -x+y, -z+2/3'
2 'x-y, -y, -z+1/3'
3 'y, x, -z'
4 '-x+y, -x, z+1/3'
5 '-y, x-y, z+2/3'
6 'x, y, z'
loop_
_atom_type_symbol
_atom_type_oxidation_number
Ge4+ 4
O2- -2
loop_
_atom_site_label
_atom_site_type_symbol
_atom_site_symmetry_multiplicity
_atom_site_Wyckoff_symbol
_atom_site_fract_x
_atom_site_fract_y
_atom_site_fract_z
_atom_site_B_iso_or_equiv
_atom_site_occupancy
_atom_site_attached_hydrogens
Ge1 Ge4+ 3 a 0.4521(8) 0 0.6667 0.6 1. 0
O1 O2- 6 c 0.3957(8) 0.3019(7) 0.7582(8) 1.2 1. 0
