
data_67220-ICSD
_database_code_ICSD 67220
_audit_creation_date 1990-12-27
_chemical_name_systematic 'Mercury digallium sulfide'
_chemical_formula_structural 'Hg Ga2 S4'
_chemical_formula_sum 'Ga2 Hg1 S4'
_chemical_name_structure_type Al2CdS4
_exptl_crystal_density_diffrn 5.
_cell_length_a 5.5106(1)
_cell_length_b 5.5106(1)
_cell_length_c 10.2392(2)
_cell_angle_alpha 90.
_cell_angle_beta 90.
_cell_angle_gamma 90.
_cell_volume 310.93
_cell_formula_units_Z 2
_symmetry_space_group_name_H-M 'I -4'
_symmetry_Int_Tables_number 82
_refine_ls_R_factor_all 0.045
loop_
_symmetry_equiv_pos_site_id
_symmetry_equiv_pos_as_xyz
1 '-y, x, -z'
2 'y, -x, -z'
3 '-x, -y, z'
4 'x, y, z'
5 '-y+1/2, x+1/2, -z+1/2'
6 'y+1/2, -x+1/2, -z+1/2'
7 '-x+1/2, -y+1/2, z+1/2'
8 'x+1/2, y+1/2, z+1/2'
loop_
_atom_type_symbol
_atom_type_oxidation_number
Hg2+ 2
Ga3+ 3
S2- -2
loop_
_atom_site_label
_atom_site_type_symbol
_atom_site_symmetry_multiplicity
_atom_site_Wyckoff_symbol
_atom_site_fract_x
_atom_site_fract_y
_atom_site_fract_z
_atom_site_B_iso_or_equiv
_atom_site_occupancy
_atom_site_attached_hydrogens
Hg1 Hg2+ 2 a 0 0 0 . 1. 0
Ga1 Ga3+ 2 b 0 0 0.5 . 1. 0
Ga2 Ga3+ 2 c 0 0.5 0.25 . 1. 0
S1 S2- 8 g 0.2718(3) 0.2675(3) 0.1374(1) . 1. 0
loop_
_atom_site_aniso_label
_atom_site_aniso_type_symbol
_atom_site_aniso_U_11
_atom_site_aniso_U_22
_atom_site_aniso_U_33
_atom_site_aniso_U_12
_atom_site_aniso_U_13
_atom_site_aniso_U_23
Hg1 Hg2+ 0.0122(1) 0.0122(1) 0.0157(2) 0 0 0
Ga1 Ga3+ 0.0077(2) 0.0077(2) 0.0076(4) 0 0 0
Ga2 Ga3+ 0.0092(3) 0.0092(3) 0.0068(4) 0 0 0
S1 S2- 0.0123(5) 0.0110(5) 0.0120(5) -.0013(4) 0.0026(4) -.0013(3)
