
#(C) 2017 by FIZ Karlsruhe - Leibniz Institute for Information Infrastructure.  All rights reserved.
data_67334-ICSD
_database_code_ICSD 67334
_audit_creation_date 1990-12-27
_audit_update_record 2012-08-01
_chemical_name_systematic 'Dithallium(III) dibarium copper oxide'
_chemical_formula_structural 'Tl2 Ba2 Cu O6'
_chemical_formula_sum 'Ba2 Cu1 O6 Tl2'
_exptl_crystal_density_diffrn 8.12
_publ_section_title

;
Preparation and chemical composition of superconducting oxide
Tl2Ba2Can-1CunO2n+4 with n=1, 2 and 3
;
loop_
_citation_id
_citation_journal_full
_citation_year
_citation_journal_volume
_citation_page_first
_citation_page_last
_citation_journal_id_ASTM
primary 'Japanese Journal of Applied Physics, Part 2' 1989 28 382 385 JAPLD8
loop_
_publ_author_name
'Kikuchi, M.'
'Kajitani, T.'
'Suzuki, T.'
'Nakajima, S.'
'Hiraga, K.'
'Kobayashi, N.'
'Iwasaki, H.'
'Syono, Y.'
'Muto, Y.'
_cell_length_a 3.8625(2)
_cell_length_b 3.8625(2)
_cell_length_c 23.124(2)
_cell_angle_alpha 90.
_cell_angle_beta 90.
_cell_angle_gamma 90.
_cell_volume 344.98
_cell_formula_units_Z 2
_symmetry_space_group_name_H-M 'I 4/m m m'
_symmetry_Int_Tables_number 139
_refine_ls_R_factor_all 0.08
loop_
_symmetry_equiv_pos_site_id
_symmetry_equiv_pos_as_xyz
1 'y, x, -z'
2 '-y, -x, -z'
3 '-y, x, -z'
4 'y, -x, -z'
5 '-x, y, -z'
6 'x, -y, -z'
7 'x, y, -z'
8 '-x, -y, -z'
9 '-y, -x, z'
10 'y, x, z'
11 'y, -x, z'
12 '-y, x, z'
13 'x, -y, z'
14 '-x, y, z'
15 '-x, -y, z'
16 'x, y, z'
17 'y+1/2, x+1/2, -z+1/2'
18 '-y+1/2, -x+1/2, -z+1/2'
19 '-y+1/2, x+1/2, -z+1/2'
20 'y+1/2, -x+1/2, -z+1/2'
21 '-x+1/2, y+1/2, -z+1/2'
22 'x+1/2, -y+1/2, -z+1/2'
23 'x+1/2, y+1/2, -z+1/2'
24 '-x+1/2, -y+1/2, -z+1/2'
25 '-y+1/2, -x+1/2, z+1/2'
26 'y+1/2, x+1/2, z+1/2'
27 'y+1/2, -x+1/2, z+1/2'
28 '-y+1/2, x+1/2, z+1/2'
29 'x+1/2, -y+1/2, z+1/2'
30 '-x+1/2, y+1/2, z+1/2'
31 '-x+1/2, -y+1/2, z+1/2'
32 'x+1/2, y+1/2, z+1/2'
loop_
_atom_type_symbol
_atom_type_oxidation_number
Cu2+ 2
Tl3+ 3
Ba2+ 2
O2- -2
loop_
_atom_site_label
_atom_site_type_symbol
_atom_site_symmetry_multiplicity
_atom_site_Wyckoff_symbol
_atom_site_fract_x
_atom_site_fract_y
_atom_site_fract_z
_atom_site_B_iso_or_equiv
_atom_site_occupancy
_atom_site_attached_hydrogens
Cu1 Cu2+ 2 a 0 0 0 0.4 1. 0
Tl1 Tl3+ 4 e 0 0 0.2025(7) 1.7 1. 0
Ba1 Ba2+ 4 e 0 0 0.4160(8) 0.6 1. 0
O1 O2- 4 e 0 0 0.0839 2. 1. 0
O2 O2- 4 c 0 0.5 0 2. 1. 0
O3 O2- 4 e 0 0 0.3227 2. 1. 0
#End of TTdata_67334-ICSD