
#(C) 2017 by FIZ Karlsruhe - Leibniz Institute for Information Infrastructure.  All rights reserved.
data_67996-ICSD
_database_code_ICSD 67996
_audit_creation_date 1995-01-10
_audit_update_record 2006-04-01
_chemical_name_systematic 'Vandium(III) phosphate(V) hydrate - LT'
_chemical_formula_structural 'V (P O4) (H2 O)'
_chemical_formula_sum 'H2 O5 P1 V1'
_chemical_name_structure_type MgSO4H2O
_exptl_crystal_density_diffrn 3.14
_cell_measurement_temperature 298.
_publ_section_title

;
Synthesis, structure, and properties of two vanadium(III) phosphates: V (P O4)
. H2 O and V1.23 (P O4) (O H).69 (H2 O).31 . 0.33 H2 O
;
loop_
_citation_id
_citation_journal_full
_citation_year
_citation_journal_volume
_citation_page_first
_citation_page_last
_citation_journal_id_ASTM
primary 'Inorganic Chemistry' 1994 33 2481 2487 INOCAJ
loop_
_publ_author_name
'Vaughey, J.T.'
'Harrison, W.T.A.'
'Jacobson, A.J.'
'Goshorn, D.P.'
'Johnson, J.W.'
_cell_length_a 6.6954(3)
_cell_length_b 7.7925(3)
_cell_length_c 7.3504(3)
_cell_angle_alpha 90.
_cell_angle_beta 115.255(1)
_cell_angle_gamma 90.
_cell_volume 346.84
_cell_formula_units_Z 4
_symmetry_space_group_name_H-M 'C 1 2/c 1'
_symmetry_Int_Tables_number 15
_refine_ls_R_factor_all 0.0883
loop_
_symmetry_equiv_pos_site_id
_symmetry_equiv_pos_as_xyz
1 'x, -y, z+1/2'
2 '-x, -y, -z'
3 '-x, y, -z+1/2'
4 'x, y, z'
5 'x+1/2, -y+1/2, z+1/2'
6 '-x+1/2, -y+1/2, -z'
7 '-x+1/2, y+1/2, -z+1/2'
8 'x+1/2, y+1/2, z'
loop_
_atom_type_symbol
_atom_type_oxidation_number
V3+ 3
P5+ 5
O2- -2
H1+ 1
loop_
_atom_site_label
_atom_site_type_symbol
_atom_site_symmetry_multiplicity
_atom_site_Wyckoff_symbol
_atom_site_fract_x
_atom_site_fract_y
_atom_site_fract_z
_atom_site_B_iso_or_equiv
_atom_site_occupancy
_atom_site_attached_hydrogens
V1 V3+ 4 c 0.25 0.25 0 0.0016(5) 1. 0
P1 P5+ 4 e 0 0.0829(4) 0.25 0.0016(5) 1. 0
O1 O2- 8 f 0.2131(8) -.0306(6) 0.3549(7) 0.01(5) 1. 0
O2 O2- 8 f 0.0230(7) 0.1946(5) 0.0889(7) 0.01(5) 1. 0
O3 O2- 4 e 0 0.6162(8) 0.25 0.01(5) 1. 0
#End of TTdata_67996-ICSD