
#(C) 2017 by FIZ Karlsruhe - Leibniz Institute for Information Infrastructure.  All rights reserved.
data_68-ICSD
_database_code_ICSD 68
_audit_creation_date 1980-01-01
_audit_update_record 2017-08-01
_chemical_name_systematic 'Lead molybdenum selenide (0.5/3/4)'
_chemical_formula_structural 'Pb0.5 Mo3 Se4'
_chemical_formula_sum 'Mo3 Pb0.5 Se4'
_chemical_name_structure_type Chevrel-PbMo6S8
_exptl_crystal_density_diffrn 7.44
_publ_section_title

;
Etude structurale de combinaisons sulfurees et seleniees du molybdene. VI.
Structures cristallines de Pbx Mo3 S4 et de Pbx Mo3 Se4
;
loop_
_citation_id
_citation_journal_full
_citation_year
_citation_journal_volume
_citation_page_first
_citation_page_last
_citation_journal_id_ASTM
primary 'Acta Crystallographica B (24,1968-38,1982)' 1976 32 1342 1345 ACBCAR
loop_
_publ_author_name
'Guillevic, Joseph'
'Lestrat, Herve'
'Grandjean, Daniel'
_cell_length_a 6.810(2)
_cell_length_b 6.810(2)
_cell_length_c 6.810(2)
_cell_angle_alpha 89.23(4)
_cell_angle_beta 89.23(4)
_cell_angle_gamma 89.23(4)
_cell_volume 315.74
_cell_formula_units_Z 2
_symmetry_space_group_name_H-M 'R -3 R'
_symmetry_Int_Tables_number 148
_refine_ls_R_factor_all 0.049
loop_
_symmetry_equiv_pos_site_id
_symmetry_equiv_pos_as_xyz
1 '-z, -x, -y'
2 '-y, -z, -x'
3 '-x, -y, -z'
4 'z, x, y'
5 'y, z, x'
6 'x, y, z'
loop_
_atom_type_symbol
_atom_type_oxidation_number
Mo2+ 2.33
Se2- -2
Pb2+ 2
loop_
_atom_site_label
_atom_site_type_symbol
_atom_site_symmetry_multiplicity
_atom_site_Wyckoff_symbol
_atom_site_fract_x
_atom_site_fract_y
_atom_site_fract_z
_atom_site_B_iso_or_equiv
_atom_site_occupancy
_atom_site_attached_hydrogens
Mo1 Mo2+ 6 f 0.23642(14) 0.42064(14) 0.56089(14) . 1. 0
Se1 Se2- 6 f 0.38189(17) 0.12015(16) 0.74816(17) . 1. 0
Se2 Se2- 2 c 0.24223(16) 0.24223(16) 0.24223(16) . 1. 0
Pb1 Pb2+ 1 a 0 0 0 . 1. 0
loop_
_atom_site_aniso_label
_atom_site_aniso_type_symbol
_atom_site_aniso_beta_11
_atom_site_aniso_beta_22
_atom_site_aniso_beta_33
_atom_site_aniso_beta_12
_atom_site_aniso_beta_13
_atom_site_aniso_beta_23
Mo1 Mo2+ 0.00255(18) 0.00257(18) 0.00267(17) -.00024(13) -.00009(12) -.00012(13)
Se1 Se2- 0.00457(22) 0.00306(20) 0.00401(21) -.00040(15) 0.00046(16) 0.00020(15)
Se2 Se2- 0.00509(17) 0.00509(17) 0.00509(17) -.00105(16) -.00105(16) -.00105(16)
Pb1 Pb2+ 0.01063(15) 0.01063(15) 0.01063(15) -.00282(12) -.00282(12) -.00282(12)
#End of TTdata_68-ICSD