
#(C) 2017 by FIZ Karlsruhe - Leibniz Institute for Information Infrastructure.  All rights reserved.
data_68188-ICSD
_database_code_ICSD 68188
_audit_creation_date 1991-07-10
_chemical_name_systematic 'Dibismuth distrontium calcium dicopper oxide'
_chemical_formula_structural 'Bi2 Sr2 Ca Cu2 O8'
_chemical_formula_sum 'Bi2 Ca1 Cu2 O8 Sr2'
_chemical_name_structure_type Tl2CoBa2Cu2O8
_exptl_crystal_density_diffrn 6.54
_publ_section_title
'Crystal structure and superconductivity of Bi2Sr2Ca Cu2 O8 Compound'
loop_
_citation_id
_citation_journal_full
_citation_year
_citation_journal_volume
_citation_page_first
_citation_page_last
_citation_journal_id_ASTM
primary 'Modern Physics Letters B' 1988 2 483 489 MPLBET
loop_
_publ_author_name
'Liang, J.-K.'
'Xie, S.-S.'
'Che, G.-C.'
'Huang, J.-Q.'
'Zhang, Y.-L.'
'Zhao, Z.-X.'
_cell_length_a 3.825
_cell_length_b 3.825
_cell_length_c 30.82
_cell_angle_alpha 90.
_cell_angle_beta 90.
_cell_angle_gamma 90.
_cell_volume 450.92
_cell_formula_units_Z 2
_symmetry_space_group_name_H-M 'I 4/m m m'
_symmetry_Int_Tables_number 139
loop_
_symmetry_equiv_pos_site_id
_symmetry_equiv_pos_as_xyz
1 'y, x, -z'
2 '-y, -x, -z'
3 '-y, x, -z'
4 'y, -x, -z'
5 '-x, y, -z'
6 'x, -y, -z'
7 'x, y, -z'
8 '-x, -y, -z'
9 '-y, -x, z'
10 'y, x, z'
11 'y, -x, z'
12 '-y, x, z'
13 'x, -y, z'
14 '-x, y, z'
15 '-x, -y, z'
16 'x, y, z'
17 'y+1/2, x+1/2, -z+1/2'
18 '-y+1/2, -x+1/2, -z+1/2'
19 '-y+1/2, x+1/2, -z+1/2'
20 'y+1/2, -x+1/2, -z+1/2'
21 '-x+1/2, y+1/2, -z+1/2'
22 'x+1/2, -y+1/2, -z+1/2'
23 'x+1/2, y+1/2, -z+1/2'
24 '-x+1/2, -y+1/2, -z+1/2'
25 '-y+1/2, -x+1/2, z+1/2'
26 'y+1/2, x+1/2, z+1/2'
27 'y+1/2, -x+1/2, z+1/2'
28 '-y+1/2, x+1/2, z+1/2'
29 'x+1/2, -y+1/2, z+1/2'
30 '-x+1/2, y+1/2, z+1/2'
31 '-x+1/2, -y+1/2, z+1/2'
32 'x+1/2, y+1/2, z+1/2'
loop_
_atom_type_symbol
_atom_type_oxidation_number
Ca2+ 2
Bi3+ 3
Sr2+ 2
Cu2+ 2
O2- -2
loop_
_atom_site_label
_atom_site_type_symbol
_atom_site_symmetry_multiplicity
_atom_site_Wyckoff_symbol
_atom_site_fract_x
_atom_site_fract_y
_atom_site_fract_z
_atom_site_B_iso_or_equiv
_atom_site_occupancy
_atom_site_attached_hydrogens
Ca1 Ca2+ 2 a 0 0 0 . 1. 0
Bi1 Bi3+ 4 e 0 0 0.3 . 1. 0
Sr1 Sr2+ 4 e 0 0 0.1 . 1. 0
Cu1 Cu2+ 4 e 0 0 0.45 . 1. 0
O1 O2- 8 g 0 0.5 0.45 . 1. 0
O2 O2- 4 e 0 0 0.2 . 1. 0
O3 O2- 4 e 0 0 0.385 . 1. 0
#End of TTdata_68188-ICSD