
#(C) 2017 by FIZ Karlsruhe - Leibniz Institute for Information Infrastructure.  All rights reserved.
data_68280-ICSD
_database_code_ICSD 68280
_audit_creation_date 1991-07-10
_audit_update_record 2010-02-01
_chemical_name_systematic 'Niobium manganese phosphide (1/1/1)'
_chemical_formula_structural 'Nb Mn P'
_chemical_formula_sum 'Mn1 Nb1 P1'
_chemical_name_structure_type TiNiSi-MgSrSi
_exptl_crystal_density_diffrn 7.4
_publ_section_title
'Interaction of niobium and phosphorus with manganese and copper'
loop_
_citation_id
_citation_journal_full
_citation_year
_citation_journal_volume
_citation_page_first
_citation_page_last
_citation_journal_id_ASTM
primary 'Zhurnal Neorganicheskoi Khimii' 1988 33 734 737 ZNOKAQ
loop_
_publ_author_name
'Lomnitskaya, Ya.F.'
'Kondratyuk, G.D.'
'Zakharets, L.I.'
_cell_length_a 6.216(3)
_cell_length_b 3.549(2)
_cell_length_c 7.280(3)
_cell_angle_alpha 90.
_cell_angle_beta 90.
_cell_angle_gamma 90.
_cell_volume 160.6
_cell_formula_units_Z 4
_symmetry_space_group_name_H-M 'P n m a'
_symmetry_Int_Tables_number 62
_refine_ls_R_factor_all 0.13
loop_
_symmetry_equiv_pos_site_id
_symmetry_equiv_pos_as_xyz
1 'x+1/2, y, -z+1/2'
2 'x, -y+1/2, z'
3 '-x+1/2, y+1/2, z+1/2'
4 '-x, -y, -z'
5 '-x+1/2, -y, z+1/2'
6 '-x, y+1/2, -z'
7 'x+1/2, -y+1/2, -z+1/2'
8 'x, y, z'
loop_
_atom_type_symbol
_atom_type_oxidation_number
Nb0+ 0
Mn0+ 0
P0+ 0
loop_
_atom_site_label
_atom_site_type_symbol
_atom_site_symmetry_multiplicity
_atom_site_Wyckoff_symbol
_atom_site_fract_x
_atom_site_fract_y
_atom_site_fract_z
_atom_site_B_iso_or_equiv
_atom_site_occupancy
_atom_site_attached_hydrogens
Nb1 Nb0+ 4 c 0.028(3) 0.25 0.165(2) 1.9(2) 1. 0
Mn1 Mn0+ 4 c 0.181(7) 0.25 0.573(4) 5.0(9) 1. 0
P1 P0+ 4 c 0.760(7) 0.25 0.635(6) . 1. 0
#End of TTdata_68280-ICSD