
#(C) 2017 by FIZ Karlsruhe - Leibniz Institute for Information Infrastructure.  All rights reserved.
data_68538-ICSD
_database_code_ICSD 68538
_audit_creation_date 1991-07-10
_chemical_name_systematic 'Tantalum boride (5/6)'
_chemical_formula_structural 'Ta5 B6'
_chemical_formula_sum 'B6 Ta5'
_exptl_crystal_density_diffrn 13.8
_publ_section_title 'The crystal structure of Ta5 B6'
loop_
_citation_id
_citation_journal_full
_citation_year
_citation_journal_volume
_citation_page_first
_citation_page_last
_citation_journal_id_ASTM
primary 'Journal of the Less-Common Metals' 1990 161 341 345 JCOMAH
loop_
_publ_author_name
'Bolmgren, H.'
'Lundstroem, T.'
'Tergenius, L.E.'
'Okada, S.'
'Higashi, I.'
_cell_length_a 22.6020(80)
_cell_length_b 3.1385(7)
_cell_length_c 3.2895(4)
_cell_angle_alpha 90.
_cell_angle_beta 90.
_cell_angle_gamma 90.
_cell_volume 233.35
_cell_formula_units_Z 2
_symmetry_space_group_name_H-M 'C m m m'
_symmetry_Int_Tables_number 65
_refine_ls_R_factor_all 0.023
loop_
_symmetry_equiv_pos_site_id
_symmetry_equiv_pos_as_xyz
1 'x, -y, z'
2 '-x, y, z'
3 'x, y, -z'
4 '-x, -y, -z'
5 '-x, y, -z'
6 'x, -y, -z'
7 '-x, -y, z'
8 'x, y, z'
9 'x+1/2, -y+1/2, z'
10 '-x+1/2, y+1/2, z'
11 'x+1/2, y+1/2, -z'
12 '-x+1/2, -y+1/2, -z'
13 '-x+1/2, y+1/2, -z'
14 'x+1/2, -y+1/2, -z'
15 '-x+1/2, -y+1/2, z'
16 'x+1/2, y+1/2, z'
loop_
_atom_type_symbol
_atom_type_oxidation_number
Ta0+ 0
B0+ 0
loop_
_atom_site_label
_atom_site_type_symbol
_atom_site_symmetry_multiplicity
_atom_site_Wyckoff_symbol
_atom_site_fract_x
_atom_site_fract_y
_atom_site_fract_z
_atom_site_B_iso_or_equiv
_atom_site_occupancy
_atom_site_attached_hydrogens
Ta1 Ta0+ 2 a 0 0 0 0.157(6) 1. 0
Ta2 Ta0+ 4 g 0.385540(9) 0 0 0.149(5) 1. 0
Ta3 Ta0+ 4 h 0.194340(8) 0 0.5 0.142(5) 1. 0
B1 B0+ 4 h 0.0832(3) 0 0.5 0.30(6) 1. 0
B2 B0+ 4 g 0.2734(3) 0 0 0.26(6) 1. 0
B3 B0+ 4 h 0.4603(3) 0 0.5 0.30(6) 1. 0
#End of TTdata_68538-ICSD