
#(C) 2017 by FIZ Karlsruhe - Leibniz Institute for Information Infrastructure.  All rights reserved.
data_68592-ICSD
_database_code_ICSD 68592
_audit_creation_date 1991-07-10
_audit_update_record 2007-08-01
_chemical_name_systematic 'Calcium sulfate(VI)'
_chemical_formula_structural 'Ca (S O4)'
_chemical_formula_sum 'Ca1 O4 S1'
_chemical_name_structure_type CaSO4
_exptl_crystal_density_diffrn 2.96
_publ_section_title 'On the unit cell dimensions and bond lengths of anhydrite'
loop_
_citation_id
_citation_journal_full
_citation_year
_citation_journal_volume
_citation_page_first
_citation_page_last
_citation_journal_id_ASTM
primary 'European Journal of Mineralogy' 1989 1 721 722 EJMIER
loop_
_publ_author_name
'Hartman, P.'
_cell_length_a 6.992(3)
_cell_length_b 6.999(3)
_cell_length_c 6.240(4)
_cell_angle_alpha 90.
_cell_angle_beta 90.
_cell_angle_gamma 90.
_cell_volume 305.37
_cell_formula_units_Z 4
_symmetry_space_group_name_H-M 'B m m b'
_symmetry_Int_Tables_number 63
loop_
_symmetry_equiv_pos_site_id
_symmetry_equiv_pos_as_xyz
1 '-x, -y+1/2, z'
2 '-x, y+1/2, -z'
3 '-x, y, z'
4 '-x, -y, -z'
5 'x, y+1/2, -z'
6 'x, -y+1/2, z'
7 'x, -y, -z'
8 'x, y, z'
9 '-x+1/2, -y+1/2, z+1/2'
10 '-x+1/2, y+1/2, -z+1/2'
11 '-x+1/2, y, z+1/2'
12 '-x+1/2, -y, -z+1/2'
13 'x+1/2, y+1/2, -z+1/2'
14 'x+1/2, -y+1/2, z+1/2'
15 'x+1/2, -y, -z+1/2'
16 'x+1/2, y, z+1/2'
loop_
_atom_type_symbol
_atom_type_oxidation_number
Ca2+ 2
S6+ 6
O2- -2
loop_
_atom_site_label
_atom_site_type_symbol
_atom_site_symmetry_multiplicity
_atom_site_Wyckoff_symbol
_atom_site_fract_x
_atom_site_fract_y
_atom_site_fract_z
_atom_site_B_iso_or_equiv
_atom_site_occupancy
_atom_site_attached_hydrogens
Ca1 Ca2+ 4 c 0 0.25 0.3477 . 1. 0
S1 S6+ 4 c 0 0.75 0.1556 . 1. 0
O1 O2- 8 g 0.1698 0.75 0.0158 . 1. 0
O2 O2- 8 f 0 0.5817 0.2974 . 1. 0
#End of TTdata_68592-ICSD