
data_68968-ICSD
_database_code_ICSD 68968
_audit_creation_date 1992-01-20
_chemical_name_systematic 'Niobium(IV) sulfide'
_chemical_formula_structural 'Nb S2'
_chemical_formula_sum 'Nb1 S2'
_exptl_crystal_density_diffrn 3.03
_cell_length_a 3.3263(9)
_cell_length_b 5.776(2)
_cell_length_c 35.876(13)
_cell_angle_alpha 90.
_cell_angle_beta 90.
_cell_angle_gamma 90.
_cell_volume 689.28
_cell_formula_units_Z 8
_symmetry_space_group_name_H-M 'C m c 21'
_symmetry_Int_Tables_number 36
_refine_ls_R_factor_all 0.065
loop_
_symmetry_equiv_pos_site_id
_symmetry_equiv_pos_as_xyz
1 'x, -y, z+1/2'
2 '-x, -y, z+1/2'
3 '-x, y, z'
4 'x, y, z'
5 'x+1/2, -y+1/2, z+1/2'
6 '-x+1/2, -y+1/2, z+1/2'
7 '-x+1/2, y+1/2, z'
8 'x+1/2, y+1/2, z'
loop_
_atom_type_symbol
_atom_type_oxidation_number
Nb4+ 4
S2- -2
Nb4+ 4
S2- -2
loop_
_atom_site_label
_atom_site_type_symbol
_atom_site_symmetry_multiplicity
_atom_site_Wyckoff_symbol
_atom_site_fract_x
_atom_site_fract_y
_atom_site_fract_z
_atom_site_B_iso_or_equiv
_atom_site_occupancy
_atom_site_attached_hydrogens
Nb1 Nb4+ 4 a 0 0.2415(5) 0 0.86(4) 1. 0
S1 S2- 4 a 0 -.093(1) 0.0435(3) 0.8(1) 1. 0
S2 S2- 4 a 0 -.090(2) -.0435(3) 1.3(2) 1. 0
Nb2 Nb4+ 4 a 0 -.0919(5) 0.1664(1) 0.93(5) 1. 0
S3 S2- 4 a 0 0.569(2) 0.2103(3) 1.1(2) 1. 0
S4 S2- 4 a 0 0.579(2) 0.1228(3) 1.1(2) 1. 0
