
#(C) 2017 by FIZ Karlsruhe - Leibniz Institute for Information Infrastructure.  All rights reserved.
data_69002-ICSD
_database_code_ICSD 69002
_audit_creation_date 1992-01-20
_audit_update_record 2003-10-01
_chemical_name_systematic 'Dinickel diarsenate(V) - beta, HT'
_chemical_formula_structural 'Ni2 (As2 O7)'
_chemical_formula_sum 'As2 Ni2 O7'
_chemical_name_structure_type Sc2Si2O7
_exptl_crystal_density_diffrn 4.91
_cell_measurement_temperature 773.
_publ_section_title

;
Structural properties of transition metal pyroarsenates M2As2O7 (M=Co, Mn, Ni)
;
loop_
_citation_id
_citation_journal_full
_citation_year
_citation_journal_volume
_citation_page_first
_citation_page_last
_citation_journal_id_ASTM
primary 'Journal of Solid State Chemistry' 1990 86 1 15 JSSCBI
loop_
_publ_author_name
'Buckley, A.M.'
'Bramwell, S.T.'
'Day, P.'
_cell_length_a 6.5391(11)
_cell_length_b 8.5007(11)
_cell_length_c 4.7437(1)
_cell_angle_alpha 90.
_cell_angle_beta 103.19(1)
_cell_angle_gamma 90.
_cell_volume 256.73
_cell_formula_units_Z 2
_symmetry_space_group_name_H-M 'C 1 2/m 1'
_symmetry_Int_Tables_number 12
_refine_ls_R_factor_all 0.032
loop_
_symmetry_equiv_pos_site_id
_symmetry_equiv_pos_as_xyz
1 '-x, y, -z'
2 '-x, -y, -z'
3 'x, -y, z'
4 'x, y, z'
5 '-x+1/2, y+1/2, -z'
6 '-x+1/2, -y+1/2, -z'
7 'x+1/2, -y+1/2, z'
8 'x+1/2, y+1/2, z'
loop_
_atom_type_symbol
_atom_type_oxidation_number
Ni2+ 2
As5+ 5
O2- -2
loop_
_atom_site_label
_atom_site_type_symbol
_atom_site_symmetry_multiplicity
_atom_site_Wyckoff_symbol
_atom_site_fract_x
_atom_site_fract_y
_atom_site_fract_z
_atom_site_B_iso_or_equiv
_atom_site_occupancy
_atom_site_attached_hydrogens
Ni1 Ni2+ 4 h 0 0.3136(1) 0.5 . 1. 0
As1 As5+ 4 i 0.2263(2) 0 0.903 . 1. 0
O1 O2- 2 a 0 0 0 . 1. 0
O2 O2- 4 i 0.3983(2) 0 0.2303(3) . 1. 0
O3 O2- 8 j 0.2315(2) 0.1648(1) 0.7129(2) . 1. 0
loop_
_atom_site_aniso_label
_atom_site_aniso_type_symbol
_atom_site_aniso_B_11
_atom_site_aniso_B_22
_atom_site_aniso_B_33
_atom_site_aniso_B_12
_atom_site_aniso_B_13
_atom_site_aniso_B_23
Ni1 Ni2+ 2.14(4) 0.91(4) 1.74(4) 0 -.20(3) 0
As1 As5+ 1.07(5) 0.86(6) 0.44(6) 0 -.65(5) 0
O1 O2- 1.9(2) 14.0(4) 10.7(3) 0 2.1(1) 0
O2 O2- 2.65(8) 1.16(7) 0.67(6) 0 -.56(6) 0
O3 O2- 3.20(6) 1.66(5) 1.74(6) 0.46(4) 0.25(4) 0.79(4)
#End of TTdata_69002-ICSD