
data_69496-ICSD
_database_code_ICSD 69496
_audit_creation_date 1992-08-20
_chemical_name_systematic 'Tantalum(IV) sulfide'
_chemical_formula_structural 'Ta S2'
_chemical_formula_sum 'S2 Ta1'
_chemical_name_structure_type NbS2-misfit
_exptl_crystal_density_diffrn 3.73
_cell_length_a 3.300(1)
_cell_length_b 5.727(3)
_cell_length_c 23.12(1)
_cell_angle_alpha 90.
_cell_angle_beta 90.
_cell_angle_gamma 90.
_cell_volume 436.95
_cell_formula_units_Z 4
_symmetry_space_group_name_H-M 'F m 2 m'
_symmetry_Int_Tables_number 42
_refine_ls_R_factor_all 0.033
loop_
_symmetry_equiv_pos_site_id
_symmetry_equiv_pos_as_xyz
1 'x, y, -z'
2 '-x, y, z'
3 '-x, y, -z'
4 'x, y, z'
5 'x, y+1/2, -z+1/2'
6 '-x, y+1/2, z+1/2'
7 '-x, y+1/2, -z+1/2'
8 'x, y+1/2, z+1/2'
9 'x+1/2, y, -z+1/2'
10 '-x+1/2, y, z+1/2'
11 '-x+1/2, y, -z+1/2'
12 'x+1/2, y, z+1/2'
13 'x+1/2, y+1/2, -z'
14 '-x+1/2, y+1/2, z'
15 '-x+1/2, y+1/2, -z'
16 'x+1/2, y+1/2, z'
loop_
_atom_type_symbol
_atom_type_oxidation_number
Ta4+ 4
S2- -2
loop_
_atom_site_label
_atom_site_type_symbol
_atom_site_symmetry_multiplicity
_atom_site_Wyckoff_symbol
_atom_site_fract_x
_atom_site_fract_y
_atom_site_fract_z
_atom_site_B_iso_or_equiv
_atom_site_occupancy
_atom_site_attached_hydrogens
Ta1 Ta4+ 4 a 0 -.08 0 0.0051(1) 1. 0
S1 S2- 8 d 0 0.2427(5) 0.0675(1) 0.0069(5) 1. 0
