
#(C) 2017 by FIZ Karlsruhe - Leibniz Institute for Information Infrastructure.  All rights reserved.
data_69493-ICSD
_database_code_ICSD 69493
_audit_creation_date 1992-08-20
_chemical_name_systematic 'Calcium copper phosphide (2/6/5)'
_chemical_formula_structural 'Ca2 Cu6 P5'
_chemical_formula_sum 'Ca2 Cu6 P5'
_exptl_crystal_density_diffrn 5.15
_publ_section_title

;
Ternaere BaAl4-Varianten. Darstellung und Struktur von CaCu2As2, Ca2Cu6P5 und
Ba2Cu3P4
;
loop_
_citation_id
_citation_journal_full
_citation_year
_citation_journal_volume
_citation_page_first
_citation_page_last
_citation_journal_id_ASTM
primary 'Zeitschrift fuer Anorganische und Allgemeine Chemie (1950) (DE)' 1990
581 173 182 ZAACAB
loop_
_publ_author_name
'Pilchowski, I.'
'Mewis, A.'
_cell_length_a 4.015(1)
_cell_length_b 4.015(1)
_cell_length_c 24.657(2)
_cell_angle_alpha 90.
_cell_angle_beta 90.
_cell_angle_gamma 90.
_cell_volume 397.48
_cell_formula_units_Z 2
_symmetry_space_group_name_H-M 'I 4/m m m'
_symmetry_Int_Tables_number 139
_refine_ls_R_factor_all 0.046
loop_
_symmetry_equiv_pos_site_id
_symmetry_equiv_pos_as_xyz
1 'y, x, -z'
2 '-y, -x, -z'
3 '-y, x, -z'
4 'y, -x, -z'
5 '-x, y, -z'
6 'x, -y, -z'
7 'x, y, -z'
8 '-x, -y, -z'
9 '-y, -x, z'
10 'y, x, z'
11 'y, -x, z'
12 '-y, x, z'
13 'x, -y, z'
14 '-x, y, z'
15 '-x, -y, z'
16 'x, y, z'
17 'y+1/2, x+1/2, -z+1/2'
18 '-y+1/2, -x+1/2, -z+1/2'
19 '-y+1/2, x+1/2, -z+1/2'
20 'y+1/2, -x+1/2, -z+1/2'
21 '-x+1/2, y+1/2, -z+1/2'
22 'x+1/2, -y+1/2, -z+1/2'
23 'x+1/2, y+1/2, -z+1/2'
24 '-x+1/2, -y+1/2, -z+1/2'
25 '-y+1/2, -x+1/2, z+1/2'
26 'y+1/2, x+1/2, z+1/2'
27 'y+1/2, -x+1/2, z+1/2'
28 '-y+1/2, x+1/2, z+1/2'
29 'x+1/2, -y+1/2, z+1/2'
30 '-x+1/2, y+1/2, z+1/2'
31 '-x+1/2, -y+1/2, z+1/2'
32 'x+1/2, y+1/2, z+1/2'
loop_
_atom_type_symbol
_atom_type_oxidation_number
Ca0+ 0
Cu0+ 0
P0+ 0
loop_
_atom_site_label
_atom_site_type_symbol
_atom_site_symmetry_multiplicity
_atom_site_Wyckoff_symbol
_atom_site_fract_x
_atom_site_fract_y
_atom_site_fract_z
_atom_site_B_iso_or_equiv
_atom_site_occupancy
_atom_site_attached_hydrogens
Ca1 Ca0+ 4 e 0 0 0.3511(2) 0.0066(7) 1. 0
Cu1 Cu0+ 8 g 0.5 0 0.0537(1) 0.0102(5) 1. 0
Cu2 Cu0+ 4 d 0 0.5 0.25 0.0120(5) 1. 0
P1 P0+ 2 b 0 0 0.5 0.0085(24) 1. 0
P2 P0+ 4 e 0 0 0.1067(3) 0.0065(12) 1. 0
P3 P0+ 4 e 0 0 0.1974(3) 0.0059(16) 1. 0
#End of TTdata_69493-ICSD