
#(C) 2017 by FIZ Karlsruhe - Leibniz Institute for Information Infrastructure.  All rights reserved.
data_69685-ICSD
_database_code_ICSD 69685
_audit_creation_date 1994-01-19
_chemical_name_systematic Trichloro(tetracarbonylcobaltio)tin
_chemical_formula_structural 'Cl3 (Co (C O)4) Sn'
_chemical_formula_sum 'C4 Cl3 Co1 O4 Sn1'
_exptl_crystal_density_diffrn 2.37
_publ_section_title

;
Die Kristall- und Molekuelstrukturen der Verbindungen (Cl4-xSn(Co(CO)4)x) mit
x=1, 2 und 3
;
loop_
_citation_id
_citation_journal_full
_citation_year
_citation_journal_volume
_citation_page_first
_citation_page_last
_citation_journal_id_ASTM
primary 'Zeitschrift fuer Naturforschung, B: Chemical Sciences' 1991 46 187 191
ZNBSEN
loop_
_publ_author_name
'Kluefers, P.'
_cell_length_a 10.1606(9)
_cell_length_b 10.1606(9)
_cell_length_c 9.294(2)
_cell_angle_alpha 90.
_cell_angle_beta 90.
_cell_angle_gamma 120.
_cell_volume 830.94
_cell_formula_units_Z 3
_symmetry_space_group_name_H-M 'R 3 H'
_symmetry_Int_Tables_number 146
_refine_ls_R_factor_all 0.028
loop_
_symmetry_equiv_pos_site_id
_symmetry_equiv_pos_as_xyz
1 '-x+y, -x, z'
2 '-y, x-y, z'
3 'x, y, z'
4 '-x+y+2/3, -x+1/3, z+1/3'
5 '-y+2/3, x-y+1/3, z+1/3'
6 'x+2/3, y+1/3, z+1/3'
7 '-x+y+1/3, -x+2/3, z+2/3'
8 '-y+1/3, x-y+2/3, z+2/3'
9 'x+1/3, y+2/3, z+2/3'
loop_
_atom_type_symbol
_atom_type_oxidation_number
Sn2+ 2
Co1+ 1
Cl1- -1
C2+ 2
O2- -2
C2+ 2
O2- -2
loop_
_atom_site_label
_atom_site_type_symbol
_atom_site_symmetry_multiplicity
_atom_site_Wyckoff_symbol
_atom_site_fract_x
_atom_site_fract_y
_atom_site_fract_z
_atom_site_B_iso_or_equiv
_atom_site_occupancy
_atom_site_attached_hydrogens
Sn1 Sn2+ 3 a 0 0 0 . 1. 0
Co1 Co1+ 3 a 0 0 0.2665(1) . 1. 0
Cl1 Cl1- 9 b 0.2091(2) 0.0063(2) 0.8935(2) . 1. 0
C1 C2+ 3 a 0 0 0.4623(12) . 1. 0
O1 O2- 3 a 0 0 0.5818(9) . 1. 0
C2 C2+ 9 b 0.1431(7) 0.1961(7) 0.2520(6) . 1. 0
O2 O2- 9 b 0.2342(6) 0.3206(5) 0.2437(6) . 1. 0
loop_
_atom_site_aniso_label
_atom_site_aniso_type_symbol
_atom_site_aniso_U_11
_atom_site_aniso_U_22
_atom_site_aniso_U_33
_atom_site_aniso_U_12
_atom_site_aniso_U_13
_atom_site_aniso_U_23
Sn1 Sn2+ 0.0476(2) 0.0476(2) 0.0301(3) 0.0238(1) 0 0
Co1 Co1+ 0.0444(4) 0.0444(4) 0.0311(7) 0.0222(2) 0 0
Cl1 Cl1- 0.068(1) 0.0988(13) 0.0569(9) 0.0500(9) 0.0135(7) 0.0035(8)
C1 C2+ 0.0653(42) 0.0653(42) 0.0376(62) 0.0326(21) 0 0
O1 O2- 0.1011(43) 0.1011(43) 0.0365(44) 0.0506(22) 0 0
C2 C2+ 0.0593(33) 0.0514(32) 0.0442(28) 0.0241(28) -.0001(24) -.0024(23)
O2 O2- 0.0859(34) 0.0545(27) 0.0773(33) 0.0167(26) -.0001(25) -.0058(23)
#End of TTdata_69685-ICSD