
data_69692-ICSD
_database_code_ICSD 69692
_audit_creation_date 1994-01-19
_audit_update_record 2012-08-01
_chemical_name_systematic 'Lithium cobalt phosphide (1/6/4)'
_chemical_formula_structural 'Li Co6 P4'
_chemical_formula_sum 'Co6 Li1 P4'
_chemical_name_structure_type LiCo6P4
_exptl_crystal_density_diffrn 6.42
_cell_length_a 6.584(3)
_cell_length_b 6.584(3)
_cell_length_c 3.338(2)
_cell_angle_alpha 90.
_cell_angle_beta 90.
_cell_angle_gamma 120.
_cell_volume 125.31
_cell_formula_units_Z 1
_symmetry_space_group_name_H-M 'P -6 m 2'
_symmetry_Int_Tables_number 187
_refine_ls_R_factor_all 0.035
loop_
_symmetry_equiv_pos_site_id
_symmetry_equiv_pos_as_xyz
1 'x, x-y, -z'
2 '-x+y, y, -z'
3 '-y, -x, -z'
4 'x, x-y, z'
5 '-x+y, y, z'
6 '-y, -x, z'
7 '-x+y, -x, -z'
8 '-y, x-y, -z'
9 'x, y, -z'
10 '-x+y, -x, z'
11 '-y, x-y, z'
12 'x, y, z'
loop_
_atom_type_symbol
_atom_type_oxidation_number
Li0+ 0
Co0+ 0
P0+ 0
loop_
_atom_site_label
_atom_site_type_symbol
_atom_site_symmetry_multiplicity
_atom_site_Wyckoff_symbol
_atom_site_fract_x
_atom_site_fract_y
_atom_site_fract_z
_atom_site_B_iso_or_equiv
_atom_site_occupancy
_atom_site_attached_hydrogens
Li1 Li0+ 1 a 0 0 0 0.002(2) 1. 0
Co1 Co0+ 3 j 0.5365(1) 0.4635(1) 0 . 1. 0
Co2 Co0+ 3 k 0.2002(1) 0.7998(1) 0.5 . 1. 0
P1 P0+ 1 c 0.3333 0.6667 0 . 1. 0
P2 P0+ 3 k 0.8192(1) 0.1808(1) 0.5 . 1. 0
loop_
_atom_site_aniso_label
_atom_site_aniso_type_symbol
_atom_site_aniso_U_11
_atom_site_aniso_U_22
_atom_site_aniso_U_33
_atom_site_aniso_U_12
_atom_site_aniso_U_13
_atom_site_aniso_U_23
Co1 Co0+ 0.0021(2) 0.0014(2) 0.0037(2) 0.0007(1) 0 0
Co2 Co0+ 0.0010(1) 0.0013(2) 0.0040(2) 0.00065(10) 0 0
P1 P0+ 0.0011(4) 0.0011(4) 0.0021(6) 0.00055(20) 0 0
P2 P0+ 0.0012(3) 0.0010(4) 0.0043(3) 0.0004(2) 0 0
