
data_69739-ICSD
_database_code_ICSD 69739
_audit_creation_date 1994-01-19
_audit_update_record 2000-07-15
_chemical_name_systematic 'Strontium mercurate'
_chemical_formula_structural 'Sr (Hg O2)'
_chemical_formula_sum 'Hg1 O2 Sr1'
_exptl_crystal_density_diffrn 6.6
_cell_length_a 3.833(3)
_cell_length_b 3.833(3)
_cell_length_c 18.990(15)
_cell_angle_alpha 90.
_cell_angle_beta 90.
_cell_angle_gamma 120.
_cell_volume 241.62
_cell_formula_units_Z 3
_symmetry_space_group_name_H-M 'P 32 2 1'
_symmetry_Int_Tables_number 154
_refine_ls_R_factor_all 0.14
loop_
_symmetry_equiv_pos_site_id
_symmetry_equiv_pos_as_xyz
1 '-x, -x+y, -z+2/3'
2 'x-y, -y, -z+1/3'
3 'y, x, -z'
4 '-x+y, -x, z+1/3'
5 '-y, x-y, z+2/3'
6 'x, y, z'
loop_
_atom_type_symbol
_atom_type_oxidation_number
Hg2+ 2
Sr2+ 2
O2- -2
loop_
_atom_site_label
_atom_site_type_symbol
_atom_site_symmetry_multiplicity
_atom_site_Wyckoff_symbol
_atom_site_fract_x
_atom_site_fract_y
_atom_site_fract_z
_atom_site_B_iso_or_equiv
_atom_site_occupancy
_atom_site_attached_hydrogens
Hg1 Hg2+ 3 a 0.375(2) 0 0.6667 0.66(7) 1. 0
Sr1 Sr2+ 3 b 0.371(4) 0 0.1667 0.42(16) 1. 0
O1 O2- 6 c 0.631(5) 0.628(17) 0.103(3) 1.15(80) 1. 0
