
#(C) 2017 by FIZ Karlsruhe - Leibniz Institute for Information Infrastructure.  All rights reserved.
data_71217-ICSD
_database_code_ICSD 71217
_audit_creation_date 1993-01-06
_audit_update_record 2011-08-01
_chemical_name_systematic 'Tantalum palladium telluride (4/3/16)'
_chemical_formula_structural 'Ta4 Pd3 Te16'
_chemical_formula_sum 'Pd3 Ta4 Te16'
_exptl_crystal_density_diffrn 8.48
_cell_measurement_temperature 111.
_publ_section_title

;
Synthesis, crystal structure and electrical conductivity of a new layered
ternary telluride Ta4Pd3Te16
;
loop_
_citation_id
_citation_journal_full
_citation_year
_citation_journal_volume
_citation_page_first
_citation_page_last
_citation_journal_id_ASTM
primary

;
Journal of the Chemical Society. Dalton Transactions, Inorganic Chemistry
(1972-)
; 1991 1991 639 641 JCDTBI
loop_
_publ_author_name
'Mar, A.'
'Ibers, J.A.'
_cell_length_a 17.687(4)
_cell_length_b 3.735(1)
_cell_length_c 19.510(4)
_cell_angle_alpha 90.
_cell_angle_beta 110.42(1)
_cell_angle_gamma 90.
_cell_volume 1207.86
_cell_formula_units_Z 2
_symmetry_space_group_name_H-M 'I 1 2/m 1'
_symmetry_Int_Tables_number 12
_refine_ls_R_factor_all 0.095
loop_
_symmetry_equiv_pos_site_id
_symmetry_equiv_pos_as_xyz
1 'x, -y, z'
2 '-x, -y, -z'
3 '-x, y, -z'
4 'x, y, z'
5 'x+1/2, -y+1/2, z+1/2'
6 '-x+1/2, -y+1/2, -z+1/2'
7 '-x+1/2, y+1/2, -z+1/2'
8 'x+1/2, y+1/2, z+1/2'
loop_
_atom_type_symbol
_atom_type_oxidation_number
Ta0+ 0
Pd0+ 0
Te0+ 0
loop_
_atom_site_label
_atom_site_type_symbol
_atom_site_symmetry_multiplicity
_atom_site_Wyckoff_symbol
_atom_site_fract_x
_atom_site_fract_y
_atom_site_fract_z
_atom_site_B_iso_or_equiv
_atom_site_occupancy
_atom_site_attached_hydrogens
Ta1 Ta0+ 4 i 0.23368(4) 0 0.08323(4) 0.49(1) 1. 0
Ta2 Ta0+ 4 i 0.62582(4) 0 0.20750(4) 0.52(1) 1. 0
Pd1 Pd0+ 2 b 0 0.5 0 0.67(3) 1. 0
Pd2 Pd0+ 4 i 0.47908(8) 0.5 0.17164(7) 0.63(2) 1. 0
Te1 Te0+ 4 i 0.13751(7) 0.5 0.12433(6) 0.62(2) 1. 0
Te2 Te0+ 4 i 0.08177(7) 0 0.95780(6) 0.64(2) 1. 0
Te3 Te0+ 4 i 0.24721(7) 0.5 0.97879(6) 0.60(2) 1. 0
Te4 Te0+ 4 i 0.39423(7) 0 0.07531(6) 0.59(2) 1. 0
Te5 Te0+ 4 i 0.32189(7) 0.5 0.19073(6) 0.68(2) 1. 0
Te6 Te0+ 4 i 0.52186(7) 0 0.27864(6) 0.63(2) 1. 0
Te7 Te0+ 4 i 0.58359(7) 0.5 0.09657(6) 0.61(2) 1. 0
Te8 Te0+ 4 i 0.78117(6) 0 0.18833(6) 0.54(2) 1. 0
#End of TTdata_71217-ICSD