
#(C) 2017 by FIZ Karlsruhe - Leibniz Institute for Information Infrastructure.  All rights reserved.
data_71317-ICSD
_database_code_ICSD 71317
_audit_creation_date 1993-01-06
_audit_update_record 2006-04-01
_chemical_name_systematic 'Niobium oxide - zeta'
_chemical_formula_structural 'Nb2 O5'
_chemical_formula_sum 'Nb2 O5'
_chemical_name_structure_type Sb2O5
_exptl_crystal_density_diffrn 5.28
_publ_section_title

;
Refinement of the structure of zeta-Nb2 O5 and its relationship to the rutile
and thoreaulite structures
;
loop_
_citation_id
_citation_journal_full
_citation_year
_citation_journal_volume
_citation_page_first
_citation_page_last
_citation_journal_id_ASTM
primary 'Mineralogy and Petrology' 1991 43 217 223 MIPEE9
loop_
_publ_author_name
'Ercit, T.S.'
_cell_length_a 12.740(2)
_cell_length_b 4.8830(6)
_cell_length_c 5.5609(6)
_cell_angle_alpha 90.
_cell_angle_beta 105.02(1)
_cell_angle_gamma 90.
_cell_volume 334.12
_cell_formula_units_Z 4
_symmetry_space_group_name_H-M 'C 1 2/c 1'
_symmetry_Int_Tables_number 15
_refine_ls_R_factor_all 0.016
loop_
_symmetry_equiv_pos_site_id
_symmetry_equiv_pos_as_xyz
1 'x, -y, z+1/2'
2 '-x, -y, -z'
3 '-x, y, -z+1/2'
4 'x, y, z'
5 'x+1/2, -y+1/2, z+1/2'
6 '-x+1/2, -y+1/2, -z'
7 '-x+1/2, y+1/2, -z+1/2'
8 'x+1/2, y+1/2, z'
loop_
_atom_type_symbol
_atom_type_oxidation_number
Nb5+ 5
O2- -2
loop_
_atom_site_label
_atom_site_type_symbol
_atom_site_symmetry_multiplicity
_atom_site_Wyckoff_symbol
_atom_site_fract_x
_atom_site_fract_y
_atom_site_fract_z
_atom_site_B_iso_or_equiv
_atom_site_occupancy
_atom_site_attached_hydrogens
Nb1 Nb5+ 8 f 0.35980(2) 0.25874(5) 0.25120(4) . 1. 0
O1 O2- 4 e 0.5 0.3965 0.25 . 1. 0
O2 O2- 8 f 0.1088(2) 0.4421(5) 0.4709(4) . 1. 0
O3 O2- 8 f 0.2055(2) 0.0723(4) 0.1256(4) . 1. 0
loop_
_atom_site_aniso_label
_atom_site_aniso_type_symbol
_atom_site_aniso_U_11
_atom_site_aniso_U_22
_atom_site_aniso_U_33
_atom_site_aniso_U_12
_atom_site_aniso_U_13
_atom_site_aniso_U_23
Nb1 Nb5+ 0.0052(2) 0.0047(2) 0.0050(2) -0.0004(1) 0.0016(1) -0.0001(1)
O1 O2- 0.0071(14) 0.0076(13) 0.0104(15) 0 0.0034(12) 0
O2 O2- 0.0083(11) 0.0081(11) 0.0085(10) -0.0006(7) 0.0020(8) 0.0016(8)
O3 O2- 0.0058(10) 0.0071(9) 0.0075(10) 0.0004(8) 0.0018(8) -0.0007(8)
#End of TTdata_71317-ICSD