
#(C) 2017 by FIZ Karlsruhe - Leibniz Institute for Information Infrastructure.  All rights reserved.
data_71523-ICSD
_database_code_ICSD 71523
_audit_creation_date 1993-01-06
_chemical_name_systematic 'Yttrium ruthenium iodide (3/1/3)'
_chemical_formula_structural 'Y3 Ru I3'
_chemical_formula_sum 'I3 Ru1 Y3'
_chemical_name_structure_type Gd3MnI3
_exptl_crystal_density_diffrn 5.65
_cell_measurement_temperature 296.
_publ_section_title

;
Chains of centered metal clusters with a novel range of distortions:
Pr3I4/3Ru, Y3I3Ru and Y3I3Ir
;
loop_
_citation_id
_citation_journal_full
_citation_year
_citation_journal_volume
_citation_page_first
_citation_page_last
_citation_journal_id_ASTM
primary 'Inorganic Chemistry' 1992 31 1389 1394 INOCAJ
loop_
_publ_author_name
'Payne, M.W.'
'Dorhout, P.K.'
'Kim, S.-J.'
'Hughbanks, T.R.'
'Corbett, J.D.'
_cell_length_a 8.7001(4)
_cell_length_b 4.1845(2)
_cell_length_c 12.1326(6)
_cell_angle_alpha 90.
_cell_angle_beta 94.769(5)
_cell_angle_gamma 90.
_cell_volume 440.17
_cell_formula_units_Z 2
_symmetry_space_group_name_H-M 'P 1 21/m 1'
_symmetry_Int_Tables_number 11
_refine_ls_R_factor_all 0.037
loop_
_symmetry_equiv_pos_site_id
_symmetry_equiv_pos_as_xyz
1 'x, -y+1/2, z'
2 '-x, -y, -z'
3 '-x, y+1/2, -z'
4 'x, y, z'
loop_
_atom_type_symbol
_atom_type_oxidation_number
Y0+ 0
I0+ 0
Ru0+ 0
loop_
_atom_site_label
_atom_site_type_symbol
_atom_site_symmetry_multiplicity
_atom_site_Wyckoff_symbol
_atom_site_fract_x
_atom_site_fract_y
_atom_site_fract_z
_atom_site_B_iso_or_equiv
_atom_site_occupancy
_atom_site_attached_hydrogens
Y1 Y0+ 2 e 0.1370(2) 0.25 0.8700(2) . 1. 0
Y2 Y0+ 2 e 0.1035(2) 0.25 0.3218(2) . 1. 0
Y3 Y0+ 2 e 0.2614(2) 0.75 0.1078(2) . 1. 0
I1 I0+ 2 e 0.4291(1) 0.75 0.8638(1) . 1. 0
I2 I0+ 2 e 0.3622(1) 0.75 0.3716(1) . 1. 0
I3 I0+ 2 e 0.1459(1) 0.25 0.6052(1) . 1. 0
Ru1 Ru0+ 2 e 0.0519(2) 0.25 0.0933(1) . 1. 0
loop_
_atom_site_aniso_label
_atom_site_aniso_type_symbol
_atom_site_aniso_U_11
_atom_site_aniso_U_22
_atom_site_aniso_U_33
_atom_site_aniso_U_12
_atom_site_aniso_U_13
_atom_site_aniso_U_23
Y1 Y0+ 0.017(1) 0.021(1) 0.014(1) 0 0.0048(7) 0
Y2 Y0+ 0.0139(9) 0.023(1) 0.015(1) 0 0.0047(7) 0
Y3 Y0+ 0.012(1) 0.022(1) 0.014(1) 0 0.0036(7) 0
I1 I0+ 0.0147(6) 0.0246(8) 0.0245(7) 0 0.0057(5) 0
I2 I0+ 0.0200(7) 0.0269(8) 0.0152(7) 0 0.0055(5) 0
I3 I0+ 0.0162(6) 0.0254(8) 0.0180(7) 0 0.0009(7) 0
Ru1 Ru0+ 0.0126(7) 0.020(1) 0.0128(8) 0 0.0049(6) 0
#End of TTdata_71523-ICSD