
#(C) 2017 by FIZ Karlsruhe - Leibniz Institute for Information Infrastructure.  All rights reserved.
data_71654-ICSD
_database_code_ICSD 71654
_audit_creation_date 1993-08-22
_audit_update_record 2011-02-01
_chemical_name_systematic 'Rubidium catena-sulfidoaurate(I)'
_chemical_formula_structural 'Rb (Au S)'
_chemical_formula_sum 'Au1 Rb1 S1'
_chemical_name_structure_type RbAuS
_exptl_crystal_density_diffrn 5.88
_publ_section_title

;
Zur Synthese und Kristallstruktur von Alkalimetall-Gold-Chalcogeniden AAuX mit
A=Na,K,Rb oder Cs und X = S, Se oder Te
;
loop_
_citation_id
_citation_journal_full
_citation_year
_citation_journal_volume
_citation_page_first
_citation_page_last
_citation_journal_id_ASTM
primary 'Journal of Alloys and Compounds' 1992 184 87 94 JALCEU
loop_
_publ_author_name
'Bronger, W.'
'Kathage, H.U.'
_cell_length_a 6.639(5)
_cell_length_b 8.119(3)
_cell_length_c 6.596(4)
_cell_angle_alpha 90.
_cell_angle_beta 90.
_cell_angle_gamma 90.
_cell_volume 355.54
_cell_formula_units_Z 4
_symmetry_space_group_name_H-M 'C m c m'
_symmetry_Int_Tables_number 63
_refine_ls_R_factor_all 0.031
loop_
_symmetry_equiv_pos_site_id
_symmetry_equiv_pos_as_xyz
1 '-x, y, -z+1/2'
2 '-x, -y, z+1/2'
3 '-x, y, z'
4 '-x, -y, -z'
5 'x, -y, z+1/2'
6 'x, y, -z+1/2'
7 'x, -y, -z'
8 'x, y, z'
9 '-x+1/2, y+1/2, -z+1/2'
10 '-x+1/2, -y+1/2, z+1/2'
11 '-x+1/2, y+1/2, z'
12 '-x+1/2, -y+1/2, -z'
13 'x+1/2, -y+1/2, z+1/2'
14 'x+1/2, y+1/2, -z+1/2'
15 'x+1/2, -y+1/2, -z'
16 'x+1/2, y+1/2, z'
loop_
_atom_type_symbol
_atom_type_oxidation_number
Rb1+ 1
Au1+ 1
S2- -2
loop_
_atom_site_label
_atom_site_type_symbol
_atom_site_symmetry_multiplicity
_atom_site_Wyckoff_symbol
_atom_site_fract_x
_atom_site_fract_y
_atom_site_fract_z
_atom_site_B_iso_or_equiv
_atom_site_occupancy
_atom_site_attached_hydrogens
Rb1 Rb1+ 4 c 0 0.3753(3) 0.25 . 1. 0
Au1 Au1+ 4 a 0 0 0 . 1. 0
S1 S2- 4 c 0 0.800(1) 0.25 . 1. 0
loop_
_atom_site_aniso_label
_atom_site_aniso_type_symbol
_atom_site_aniso_U_11
_atom_site_aniso_U_22
_atom_site_aniso_U_33
_atom_site_aniso_U_12
_atom_site_aniso_U_13
_atom_site_aniso_U_23
Rb1 Rb1+ 0.023(1) 0.020(1) 0.031(1) 0 0 0
Au1 Au1+ 0.0170(3) 0.0174(3) 0.0196(3) 0 0 -.003(1)
S1 S2- 0.029(3) 0.019(2) 0.022(3) 0 0 0
#End of TTdata_71654-ICSD