
#(C) 2017 by FIZ Karlsruhe - Leibniz Institute for Information Infrastructure.  All rights reserved.
data_71808-ICSD
_database_code_ICSD 71808
_audit_creation_date 1993-08-22
_audit_update_record 2005-10-01
_chemical_name_systematic 'Iron(III) oxide hydroxide'
_chemical_formula_structural 'Fe O (O H)'
_chemical_formula_sum 'H1 Fe1 O2'
_chemical_name_structure_type AlOOH(Diaspore)
_chemical_name_mineral Goethite
_exptl_crystal_density_diffrn 4.25
_publ_section_title
'Rietveld studies of the aluminium-iron substitution in synthetic goethite'
loop_
_citation_id
_citation_journal_full
_citation_year
_citation_journal_volume
_citation_page_first
_citation_page_last
_citation_journal_id_ASTM
primary 'Materials Science Forum' 1991 79 821 826 MSFOEP
loop_
_publ_author_name
'Hazemann, J.L.'
'Berar, J.F.'
'Manceau, A.'
_cell_length_a 4.6188(2)
_cell_length_b 9.9528(4)
_cell_length_c 3.0236(1)
_cell_angle_alpha 90.
_cell_angle_beta 90.
_cell_angle_gamma 90.
_cell_volume 138.99
_cell_formula_units_Z 4
_symmetry_space_group_name_H-M 'P b n m'
_symmetry_Int_Tables_number 62
_refine_ls_R_factor_all 0.1
loop_
_symmetry_equiv_pos_site_id
_symmetry_equiv_pos_as_xyz
1 '-x+1/2, y+1/2, z'
2 'x, y, -z+1/2'
3 'x+1/2, -y+1/2, z+1/2'
4 '-x, -y, -z'
5 'x+1/2, -y+1/2, -z'
6 '-x, -y, z+1/2'
7 '-x+1/2, y+1/2, -z+1/2'
8 'x, y, z'
loop_
_atom_type_symbol
_atom_type_oxidation_number
Fe3+ 3
O2- -2
H1+ 1
loop_
_atom_site_label
_atom_site_type_symbol
_atom_site_symmetry_multiplicity
_atom_site_Wyckoff_symbol
_atom_site_fract_x
_atom_site_fract_y
_atom_site_fract_z
_atom_site_B_iso_or_equiv
_atom_site_occupancy
_atom_site_attached_hydrogens
Fe1 Fe3+ 4 c 0.0466 0.8552 0.25 . 1. 0
O1 O2- 4 c 0.714 0.2006 0.25 . 1. 0
O2 O2- 4 c 0.192 0.0517 0.25 . 1. 0
#End of TTdata_71808-ICSD