
#(C) 2017 by FIZ Karlsruhe - Leibniz Institute for Information Infrastructure.  All rights reserved.
data_72382-ICSD
_database_code_ICSD 72382
_audit_creation_date 1994-01-19
_audit_update_record 2015-02-01
_chemical_name_systematic 'Scandium rhenium carbide (5/2/7)'
_chemical_formula_structural 'Sc5 Re2 C7'
_chemical_formula_sum 'C7 Re2 Sc5'
_chemical_name_structure_type Re2Sc5C7
_exptl_crystal_density_diffrn 6.65
_publ_section_title 'Sc5Re2C7, a complex carbide with C3-units'
loop_
_citation_id
_citation_journal_full
_citation_year
_citation_journal_volume
_citation_page_first
_citation_page_last
_citation_journal_id_ASTM
primary 'Zeitschrift fuer Naturforschung, B: Chemical Sciences' 1992 47 358 364
ZNBSEN
loop_
_publ_author_name
'Poettgen, R.'
'Jeitschko, W.'
_cell_length_a 7.7926(7)
_cell_length_b 13.620(1)
_cell_length_c 3.2062(3)
_cell_angle_alpha 90.
_cell_angle_beta 90.
_cell_angle_gamma 90.
_cell_volume 340.29
_cell_formula_units_Z 2
_symmetry_space_group_name_H-M 'C m m m'
_symmetry_Int_Tables_number 65
_refine_ls_R_factor_all 0.021
loop_
_symmetry_equiv_pos_site_id
_symmetry_equiv_pos_as_xyz
1 'x, -y, z'
2 '-x, y, z'
3 'x, y, -z'
4 '-x, -y, -z'
5 '-x, y, -z'
6 'x, -y, -z'
7 '-x, -y, z'
8 'x, y, z'
9 'x+1/2, -y+1/2, z'
10 '-x+1/2, y+1/2, z'
11 'x+1/2, y+1/2, -z'
12 '-x+1/2, -y+1/2, -z'
13 '-x+1/2, y+1/2, -z'
14 'x+1/2, -y+1/2, -z'
15 '-x+1/2, -y+1/2, z'
16 'x+1/2, y+1/2, z'
loop_
_atom_type_symbol
_atom_type_oxidation_number
Sc3+ 3
Re2+ 2.5
C4- -4
C1- -1.333
C4- -4
C1- -1.333
loop_
_atom_site_label
_atom_site_type_symbol
_atom_site_symmetry_multiplicity
_atom_site_Wyckoff_symbol
_atom_site_fract_x
_atom_site_fract_y
_atom_site_fract_z
_atom_site_B_iso_or_equiv
_atom_site_occupancy
_atom_site_attached_hydrogens
Sc1 Sc3+ 8 q 0.2109(1) 0.12854(6) 0.5 . 1. 0
Sc2 Sc3+ 2 b 0.5 0 0 . 1. 0
Re1 Re2+ 4 i 0 0.28381(2) 0 . 1. 0
C1 C4- 4 j 0 0.3816(5) 0.5 0.0049(9) 1. 0
C2 C1- 4 g 0.1734(9) 0 0 0.0072(10) 1. 0
C3 C4- 4 e 0.25 0.25 0 0.0051(9) 1. 0
C4 C1- 2 a 0 0 0 0.0063(13) 1. 0
loop_
_atom_site_aniso_label
_atom_site_aniso_type_symbol
_atom_site_aniso_U_11
_atom_site_aniso_U_22
_atom_site_aniso_U_33
_atom_site_aniso_U_12
_atom_site_aniso_U_13
_atom_site_aniso_U_23
Sc1 Sc3+ 0.0039(3) 0.0043(2) 0.0048(3) 0.0007(2) 0 0
Sc2 Sc3+ 0.0061(6) 0.0032(5) 0.0044(5) 0 0 0
Re1 Re2+ 0.00135(6) 0.00270(7) 0.00375(7) 0 0 0
#End of TTdata_72382-ICSD