
#(C) 2017 by FIZ Karlsruhe - Leibniz Institute for Information Infrastructure.  All rights reserved.
data_72413-ICSD
_database_code_ICSD 72413
_audit_creation_date 1994-01-19
_chemical_name_systematic 'Manganese copper(I) arsenide'
_chemical_formula_structural 'Mn Cu As'
_chemical_formula_sum 'As1 Cu1 Mn1'
_chemical_name_structure_type TiNiSi-MgSrSi
_exptl_crystal_density_diffrn 6.93
_publ_section_title
'Darstellung und Kristallstruktur der Verbindungen MnCuX (X=P, As, PxAs1-x)'
loop_
_citation_id
_citation_journal_full
_citation_year
_citation_journal_volume
_citation_page_first
_citation_page_last
_citation_journal_id_ASTM
primary 'Zeitschrift fuer Naturforschung, B: Chemical Sciences' 1992 47 925 928
ZNBSEN
loop_
_publ_author_name
'Muendelein, J.'
'Schuster, H.U.'
_cell_length_a 6.5773(12)
_cell_length_b 3.8540(4)
_cell_length_c 7.3096(6)
_cell_angle_alpha 90.
_cell_angle_beta 90.
_cell_angle_gamma 90.
_cell_volume 185.29
_cell_formula_units_Z 4
_symmetry_space_group_name_H-M 'P n m a'
_symmetry_Int_Tables_number 62
_refine_ls_R_factor_all 0.094
loop_
_symmetry_equiv_pos_site_id
_symmetry_equiv_pos_as_xyz
1 'x+1/2, y, -z+1/2'
2 'x, -y+1/2, z'
3 '-x+1/2, y+1/2, z+1/2'
4 '-x, -y, -z'
5 '-x+1/2, -y, z+1/2'
6 '-x, y+1/2, -z'
7 'x+1/2, -y+1/2, -z+1/2'
8 'x, y, z'
loop_
_atom_type_symbol
_atom_type_oxidation_number
Mn2+ 2
Cu1+ 1
As3- -3
loop_
_atom_site_label
_atom_site_type_symbol
_atom_site_symmetry_multiplicity
_atom_site_Wyckoff_symbol
_atom_site_fract_x
_atom_site_fract_y
_atom_site_fract_z
_atom_site_B_iso_or_equiv
_atom_site_occupancy
_atom_site_attached_hydrogens
Mn1 Mn2+ 4 c 0.5402(4) 0.25 0.6780(3) . 1. 0
Cu1 Cu1+ 4 c 0.6223(3) 0.25 0.0600(3) . 1. 0
As1 As3- 4 c 0.2459(2) 0.25 0.1234(2) . 1. 0
loop_
_atom_site_aniso_label
_atom_site_aniso_type_symbol
_atom_site_aniso_U_11
_atom_site_aniso_U_22
_atom_site_aniso_U_33
_atom_site_aniso_U_12
_atom_site_aniso_U_13
_atom_site_aniso_U_23
Mn1 Mn2+ 0.0125(9) 0.0129(9) 0.0118(8) 0 0.0023(7) 0
Cu1 Cu1+ 0.0140(8) 0.0142(8) 0.0133(7) 0 -.0010(6) 0
As1 As3- 0.0038(4) 0.0079(5) 0.0086(5) 0 0.0000(4) 0
#End of TTdata_72413-ICSD