
#(C) 2017 by FIZ Karlsruhe - Leibniz Institute for Information Infrastructure.  All rights reserved.
data_72641-ICSD
_database_code_ICSD 72641
_audit_creation_date 1994-01-19
_chemical_name_systematic 'Calcium platinum silicide - II'
_chemical_formula_structural 'Ca Pt Si'
_chemical_formula_sum 'Ca1 Pt1 Si1'
_chemical_name_structure_type CaPdSi
_exptl_crystal_density_diffrn 7.47
_publ_section_title
'From a three- to a four-connected net in trimorphic CaPtSi at high pressure'
loop_
_citation_id
_citation_journal_full
_citation_year
_citation_journal_volume
_citation_page_first
_citation_page_last
_citation_journal_id_ASTM
primary 'Journal of Solid State Chemistry' 1993 103 45 56 JSSCBI
loop_
_publ_author_name
'Evers, J.'
'Oehlinger, G.'
'Polborn, K.'
'Sendlinger, B.'
_cell_length_a 5.889(1)
_cell_length_b 5.810(1)
_cell_length_c 7.243(1)
_cell_angle_alpha 90.
_cell_angle_beta 109.25(1)
_cell_angle_gamma 90.
_cell_volume 233.96
_cell_formula_units_Z 4
_symmetry_space_group_name_H-M 'P 1 21/n 1'
_symmetry_Int_Tables_number 14
_refine_ls_R_factor_all 0.082
loop_
_symmetry_equiv_pos_site_id
_symmetry_equiv_pos_as_xyz
1 '-x+1/2, y+1/2, -z+1/2'
2 '-x, -y, -z'
3 'x+1/2, -y+1/2, z+1/2'
4 'x, y, z'
loop_
_atom_type_symbol
_atom_type_oxidation_number
Ca0+ 0
Pt0+ 0
Si0+ 0
loop_
_atom_site_label
_atom_site_type_symbol
_atom_site_symmetry_multiplicity
_atom_site_Wyckoff_symbol
_atom_site_fract_x
_atom_site_fract_y
_atom_site_fract_z
_atom_site_B_iso_or_equiv
_atom_site_occupancy
_atom_site_attached_hydrogens
Ca1 Ca0+ 4 e 0.319 0.128 0.115 . 1. 0
Pt1 Pt0+ 4 e 0.928(1) 0.108(1) 0.306(1) . 1. 0
Si1 Si0+ 4 e 0.327 0.119 0.545 . 1. 0
#End of TTdata_72641-ICSD