
data_72640-ICSD
_database_code_ICSD 72640
_audit_creation_date 1994-01-19
_audit_update_record 2016-02-01
_chemical_name_systematic 'Calcium platinum silicide - I'
_chemical_formula_structural 'Ca Pt Si'
_chemical_formula_sum 'Ca1 Pt1 Si1'
_chemical_name_structure_type LaIrSi
_exptl_crystal_density_diffrn 6.93
_cell_length_a 6.320(5)
_cell_length_b 6.320(5)
_cell_length_c 6.320(5)
_cell_angle_alpha 90.
_cell_angle_beta 90.
_cell_angle_gamma 90.
_cell_volume 252.44
_cell_formula_units_Z 4
_symmetry_space_group_name_H-M 'P 21 3'
_symmetry_Int_Tables_number 198
_refine_ls_R_factor_all 0.082
loop_
_symmetry_equiv_pos_site_id
_symmetry_equiv_pos_as_xyz
1 '-z+1/2, -x, y+1/2'
2 '-y+1/2, -z, x+1/2'
3 '-x+1/2, -y, z+1/2'
4 '-z, x+1/2, -y+1/2'
5 '-y, z+1/2, -x+1/2'
6 '-x, y+1/2, -z+1/2'
7 'z+1/2, -x+1/2, -y'
8 'y+1/2, -z+1/2, -x'
9 'x+1/2, -y+1/2, -z'
10 'z, x, y'
11 'y, z, x'
12 'x, y, z'
loop_
_atom_type_symbol
_atom_type_oxidation_number
Ca0+ 0
Pt0+ 0
Si0+ 0
loop_
_atom_site_label
_atom_site_type_symbol
_atom_site_symmetry_multiplicity
_atom_site_Wyckoff_symbol
_atom_site_fract_x
_atom_site_fract_y
_atom_site_fract_z
_atom_site_B_iso_or_equiv
_atom_site_occupancy
_atom_site_attached_hydrogens
Ca1 Ca0+ 4 a 0.1276(6) 0.1276(6) 0.1276(6) 0.0090(9) 1. 0
Pt1 Pt0+ 4 a 0.4189(1) 0.4189(1) 0.4189(1) 0.0162(2) 1. 0
Si1 Si0+ 4 a 0.8345(9) 0.8345(9) 0.8345(9) 0.0097(14) 1. 0
