
data_73176-ICSD
_database_code_ICSD 73176
_audit_creation_date 1994-06-30
_chemical_name_systematic 'Rubidium sulfide (2/2) - beta'
_chemical_formula_structural 'Rb2 S2'
_chemical_formula_sum 'Rb2 S2'
_chemical_name_structure_type Na2O2
_exptl_crystal_density_diffrn 2.83
_cell_length_a 8.870(3)
_cell_length_b 8.870(3)
_cell_length_c 6.071(3)
_cell_angle_alpha 90.
_cell_angle_beta 90.
_cell_angle_gamma 120.
_cell_volume 413.65
_cell_formula_units_Z 3
_symmetry_space_group_name_H-M 'P -6 2 m'
_symmetry_Int_Tables_number 189
loop_
_symmetry_equiv_pos_site_id
_symmetry_equiv_pos_as_xyz
1 '-x, -x+y, -z'
2 'x-y, -y, -z'
3 'y, x, -z'
4 '-x, -x+y, z'
5 'x-y, -y, z'
6 'y, x, z'
7 '-x+y, -x, -z'
8 '-y, x-y, -z'
9 'x, y, -z'
10 '-x+y, -x, z'
11 '-y, x-y, z'
12 'x, y, z'
loop_
_atom_type_symbol
_atom_type_oxidation_number
Rb1+ 1
S1- -1
loop_
_atom_site_label
_atom_site_type_symbol
_atom_site_symmetry_multiplicity
_atom_site_Wyckoff_symbol
_atom_site_fract_x
_atom_site_fract_y
_atom_site_fract_z
_atom_site_B_iso_or_equiv
_atom_site_occupancy
_atom_site_attached_hydrogens
Rb1 Rb1+ 3 f 0.622 0 0 2.1 1. 0
Rb2 Rb1+ 3 g 0.328 0 0.5 2.1 1. 0
S1 S1- 2 e 0 0 0.174 1.4 1. 0
S2 S1- 4 h 0.3333 0.6667 0.326 1.4 1. 0
