
data_73322-ICSD
_database_code_ICSD 73322
_audit_creation_date 1994-01-19
_audit_update_record 2010-02-01
_chemical_name_systematic 'Tantalum iridium telluride'
_chemical_formula_structural 'Ta Ir Te4'
_chemical_formula_sum 'Ir1 Ta1 Te4'
_chemical_name_structure_type TaIrTe2
_exptl_crystal_density_diffrn 9.52
_cell_measurement_temperature 113.
_cell_length_a 3.770(1)
_cell_length_b 12.421(6)
_cell_length_c 13.184(6)
_cell_angle_alpha 90.
_cell_angle_beta 90.
_cell_angle_gamma 90.
_cell_volume 617.37
_cell_formula_units_Z 4
_symmetry_space_group_name_H-M 'P m n 21'
_symmetry_Int_Tables_number 31
_refine_ls_R_factor_all 0.1
loop_
_symmetry_equiv_pos_site_id
_symmetry_equiv_pos_as_xyz
1 'x+1/2, -y, z+1/2'
2 '-x+1/2, -y, z+1/2'
3 '-x, y, z'
4 'x, y, z'
loop_
_atom_type_symbol
_atom_type_oxidation_number
Ta5+ 5
Ir3+ 3
Te2- -2
loop_
_atom_site_label
_atom_site_type_symbol
_atom_site_symmetry_multiplicity
_atom_site_Wyckoff_symbol
_atom_site_fract_x
_atom_site_fract_y
_atom_site_fract_z
_atom_site_B_iso_or_equiv
_atom_site_occupancy
_atom_site_attached_hydrogens
Ta1 Ta5+ 2 a 0 0.05399(10) 0.00413(18) 0.29(2) 1. 0
Ta2 Ta5+ 2 a 0 0.26974(11) 0.49104(16) 0.40(2) 1. 0
Ir1 Ir3+ 2 a 0 0.53553(10) 0 0.42(2) 1. 0
Ir2 Ir3+ 2 a 0 0.75428(10) 0.49157(14) 0.39(2) 1. 0
Te1 Te2- 2 a 0 0.06480(17) 0.38968(21) 0.37(3) 1. 0
Te2 Te2- 2 a 0 0.19373(17) 0.85268(21) 0.42(3) 1. 0
Te3 Te2- 2 a 0 0.34583(18) 0.09572(22) 0.40(3) 1. 0
Te4 Te2- 2 a 0 0.41420(19) 0.63910(23) 0.53(4) 1. 0
Te5 Te2- 2 a 0 0.56422(18) 0.39601(21) 0.42(3) 1. 0
Te6 Te2- 2 a 0 0.67759(18) 0.84693(22) 0.41(3) 1. 0
Te7 Te2- 2 a 0 0.84921(18) 0.10784(20) 0.39(4) 1. 0
Te8 Te2- 2 a 0 0.89330(17) 0.64836(20) 0.34(3) 1. 0
