
data_73387-ICSD
_database_code_ICSD 73387
_audit_creation_date 1994-06-30
_audit_update_record 2017-08-01
_chemical_name_systematic 'Gallium selenide (1/1) - epsilon'
_chemical_formula_structural 'Ga Se'
_chemical_formula_sum 'Ga1 Se1'
_chemical_name_structure_type GaS
_exptl_crystal_density_diffrn 5.11
_cell_length_a 3.743
_cell_length_b 3.743
_cell_length_c 15.919
_cell_angle_alpha 90.
_cell_angle_beta 90.
_cell_angle_gamma 120.
_cell_volume 193.15
_cell_formula_units_Z 4
_symmetry_space_group_name_H-M 'P -6 m 2'
_symmetry_Int_Tables_number 187
loop_
_symmetry_equiv_pos_site_id
_symmetry_equiv_pos_as_xyz
1 'x, x-y, -z'
2 '-x+y, y, -z'
3 '-y, -x, -z'
4 'x, x-y, z'
5 '-x+y, y, z'
6 '-y, -x, z'
7 '-x+y, -x, -z'
8 '-y, x-y, -z'
9 'x, y, -z'
10 '-x+y, -x, z'
11 '-y, x-y, z'
12 'x, y, z'
loop_
_atom_type_symbol
_atom_type_oxidation_number
Ga2+ 2
Se2- -2
Ga2+ 2
Se2- -2
loop_
_atom_site_label
_atom_site_type_symbol
_atom_site_symmetry_multiplicity
_atom_site_Wyckoff_symbol
_atom_site_fract_x
_atom_site_fract_y
_atom_site_fract_z
_atom_site_B_iso_or_equiv
_atom_site_occupancy
_atom_site_attached_hydrogens
Ga1 Ga2+ 2 g 0 0 0.075 . 1. 0
Se1 Se2- 2 i 0.6667 0.3333 0.15 . 1. 0
Ga2 Ga2+ 2 i 0.6667 0.3333 0.575 . 1. 0
Se2 Se2- 2 h 0.3333 0.6667 0.65 . 1. 0
