
data_73690-ICSD
_database_code_ICSD 73690
_audit_creation_date 1995-01-10
_chemical_name_systematic 'Niobium iridium telluride'
_chemical_formula_structural 'Nb Ir Te4'
_chemical_formula_sum 'Ir1 Nb1 Te4'
_chemical_name_structure_type TaIrTe2
_exptl_crystal_density_diffrn 8.6
_cell_measurement_temperature 294.
_cell_length_a 3.768(3)
_cell_length_b 12.486(10)
_cell_length_c 13.077(9)
_cell_angle_alpha 90.
_cell_angle_beta 90.
_cell_angle_gamma 90.
_cell_volume 615.24
_cell_formula_units_Z 4
_symmetry_space_group_name_H-M 'P m n 21'
_symmetry_Int_Tables_number 31
_refine_ls_R_factor_all 0.076
loop_
_symmetry_equiv_pos_site_id
_symmetry_equiv_pos_as_xyz
1 'x+1/2, -y, z+1/2'
2 '-x+1/2, -y, z+1/2'
3 '-x, y, z'
4 'x, y, z'
loop_
_atom_type_symbol
_atom_type_oxidation_number
Nb5+ 5
Ir3+ 3
Te2- -2
loop_
_atom_site_label
_atom_site_type_symbol
_atom_site_symmetry_multiplicity
_atom_site_Wyckoff_symbol
_atom_site_fract_x
_atom_site_fract_y
_atom_site_fract_z
_atom_site_B_iso_or_equiv
_atom_site_occupancy
_atom_site_attached_hydrogens
Nb1 Nb5+ 2 a 0 0.0545(3) 0.0050(5) 0.36(7) 1. 0
Nb2 Nb5+ 2 a 0 0.2693(4) 0.4923(6) 0.68(7) 1. 0
Ir1 Ir3+ 2 a 0 0.5359(1) 0 0.24(3) 1. 0
Ir2 Ir3+ 2 a 0 0.7520(1) 0.4921(2) 0.16(3) 1. 0
Te1 Te2- 2 a 0 0.0648(3) 0.3894(4) 0.40(5) 1. 0
Te2 Te2- 2 a 0 0.1956(3) 0.8527(3) 0.32(5) 1. 0
Te3 Te2- 2 a 0 0.3472(2) 0.0961(3) 0.24(5) 1. 0
Te4 Te2- 2 a 0 0.4135(3) 0.6394(4) 0.55(6) 1. 0
Te5 Te2- 2 a 0 0.5631(3) 0.3959(3) 0.26(5) 1. 0
Te6 Te2- 2 a 0 0.6764(3) 0.8464(4) 0.44(5) 1. 0
Te7 Te2- 2 a 0 0.8512(2) 0.1095(3) 0.38(5) 1. 0
Te8 Te2- 2 a 0 0.8900(3) 0.6494(3) 0.37(5) 1. 0
