
#(C) 2017 by FIZ Karlsruhe - Leibniz Institute for Information Infrastructure.  All rights reserved.
data_74163-ICSD
_database_code_ICSD 74163
_audit_creation_date 1995-01-10
_chemical_name_systematic 'Thallium(III) yttrium dibarium dicopper oxide'
_chemical_formula_structural 'Tl Y Ba2 Cu2 O7'
_chemical_formula_sum 'Ba2 Cu2 O7 Tl1 Y1'
_chemical_name_structure_type YBa2Cu3O7(tet)
_exptl_crystal_density_diffrn 7.2
_publ_section_title

;
Studies on the structure, composition and superconductivity of three decker
perovskite arrangement type crystal
;
loop_
_citation_id
_citation_journal_full
_citation_year
_citation_journal_volume
_citation_page_first
_citation_page_last
_citation_journal_id_ASTM
primary 'Shanghai Gongye Daxue Xuebao' 1992 13 266 271 SGOXEB
loop_
_publ_author_name
'Zhou, D.-Y.'
'Xu, C.-H.'
'Chen, M.'
_cell_length_a 3.866(1)
_cell_length_b 3.866(1)
_cell_length_c 12.457(3)
_cell_angle_alpha 90.
_cell_angle_beta 90.
_cell_angle_gamma 90.
_cell_volume 186.18
_cell_formula_units_Z 1
_symmetry_space_group_name_H-M 'P 4/m m m'
_symmetry_Int_Tables_number 123
loop_
_symmetry_equiv_pos_site_id
_symmetry_equiv_pos_as_xyz
1 'y, x, -z'
2 '-y, -x, -z'
3 '-y, x, -z'
4 'y, -x, -z'
5 '-x, y, -z'
6 'x, -y, -z'
7 'x, y, -z'
8 '-x, -y, -z'
9 '-y, -x, z'
10 'y, x, z'
11 'y, -x, z'
12 '-y, x, z'
13 'x, -y, z'
14 '-x, y, z'
15 '-x, -y, z'
16 'x, y, z'
loop_
_atom_type_symbol
_atom_type_oxidation_number
Tl3+ 3
Y3+ 3
Ba2+ 2
Cu2+ 2
O2- -2
loop_
_atom_site_label
_atom_site_type_symbol
_atom_site_symmetry_multiplicity
_atom_site_Wyckoff_symbol
_atom_site_fract_x
_atom_site_fract_y
_atom_site_fract_z
_atom_site_B_iso_or_equiv
_atom_site_occupancy
_atom_site_attached_hydrogens
Tl1 Tl3+ 1 a 0 0 0 0.2 1. 0
Y1 Y3+ 1 d 0.5 0.5 0.5 0.4 1. 0
Ba1 Ba2+ 2 h 0.5 0.5 0.194 0.3 1. 0
Cu1 Cu2+ 2 g 0 0 0.391 0.5 1. 0
O1 O2- 1 c 0.5 0.5 0 1.8 1. 0
O2 O2- 2 g 0 0 0.161 0.6 1. 0
O3 O2- 4 i 0 0.5 0.391 1.2 1. 0
#End of TTdata_74163-ICSD