
#(C) 2017 by FIZ Karlsruhe - Leibniz Institute for Information Infrastructure.  All rights reserved.
data_74438-ICSD
_database_code_ICSD 74438
_audit_creation_date 1995-10-17
_audit_update_record 2012-02-01
_chemical_name_systematic 'Thallium vanadium oxide (0.5/2/5)'
_chemical_formula_structural 'Tl0.5 V2 O5'
_chemical_formula_sum 'O5 Tl0.5 V2'
_chemical_name_structure_type Tl.5V2O5
_exptl_crystal_density_diffrn 4.66
_publ_section_title

;
Structure and phase transitions of low-dimensional thallium vanadium bronze
Tlx V2 O5 (0.44<= x<= 0.48)
;
loop_
_citation_id
_citation_journal_full
_citation_year
_citation_journal_volume
_citation_page_first
_citation_page_last
_citation_journal_id_ASTM
primary 'Journal of Solid State Chemistry' 1992 97 186 198 JSSCBI
loop_
_publ_author_name
'Ganne, M.'
'Jouanneaux, A.'
'Tournoux, M.'
'Le Bail, A.'
_cell_length_a 11.609(8)
_cell_length_b 3.6877(2)
_cell_length_c 9.629(6)
_cell_angle_alpha 90.
_cell_angle_beta 100.90(4)
_cell_angle_gamma 90.
_cell_volume 404.79
_cell_formula_units_Z 4
_symmetry_space_group_name_H-M 'C 1 2/m 1'
_symmetry_Int_Tables_number 12
_refine_ls_R_factor_all 0.055
loop_
_symmetry_equiv_pos_site_id
_symmetry_equiv_pos_as_xyz
1 '-x, y, -z'
2 '-x, -y, -z'
3 'x, -y, z'
4 'x, y, z'
5 '-x+1/2, y+1/2, -z'
6 '-x+1/2, -y+1/2, -z'
7 'x+1/2, -y+1/2, z'
8 'x+1/2, y+1/2, z'
loop_
_atom_type_symbol
_atom_type_oxidation_number
Tl1+ 1
V4+ 4.75
O2- -2
loop_
_atom_site_label
_atom_site_type_symbol
_atom_site_symmetry_multiplicity
_atom_site_Wyckoff_symbol
_atom_site_fract_x
_atom_site_fract_y
_atom_site_fract_z
_atom_site_B_iso_or_equiv
_atom_site_occupancy
_atom_site_attached_hydrogens
Tl1 Tl1+ 2 d 0 0.5 0.5 . 1. 0
V1 V4+ 4 i 0.2079(4) 0 0.8447(4) 0.57(9) 1. 0
V2 V4+ 4 i 0.0888(4) 0 0.1533(4) 0.57(9) 1. 0
O1 O2- 4 i 0.3745(11) 0 0.8726(10) 2.30(16) 1. 0
O2 O2- 4 i 0.0989(9) 0 0.3221(13) 2.30(16) 1. 0
O3 O2- 4 i 0.0603(12) 0 0.9063(11) 2.30(16) 1. 0
O4 O2- 4 i 0.2662(12) 0 0.1128(9) 2.30(16) 1. 0
O5 O2- 4 i 0.1738(10) 0 0.6832(13) 2.30(16) 1. 0
loop_
_atom_site_aniso_label
_atom_site_aniso_type_symbol
_atom_site_aniso_beta_11
_atom_site_aniso_beta_22
_atom_site_aniso_beta_33
_atom_site_aniso_beta_12
_atom_site_aniso_beta_13
_atom_site_aniso_beta_23
Tl1 Tl1+ 0.0054(3) 0.0318(19) 0.0064(3) 0 0.0002(2) 0
#End of TTdata_74438-ICSD