
#(C) 2017 by FIZ Karlsruhe - Leibniz Institute for Information Infrastructure.  All rights reserved.
data_74601-ICSD
_database_code_ICSD 74601
_audit_creation_date 1995-10-17
_chemical_name_systematic 'Chromium antimony sulfide'
_chemical_formula_structural 'Cr Sb S3'
_chemical_formula_sum 'Cr1 S3 Sb1'
_chemical_name_structure_type NH4CdCl3/Sn2S3
_exptl_crystal_density_diffrn 4.44
_publ_section_title 'Structure d'un nouveau sulfure ternaire de chrome: CrSbS3'
loop_
_citation_id
_citation_journal_full
_citation_year
_citation_journal_volume
_citation_page_first
_citation_page_last
_citation_journal_id_ASTM
primary

;
Comptes Rendus Hebdomadaires des Seances de l'Academie des Sciences, Ser. II
(1994-)
; 1994 318 893 900 CMCAEK
loop_
_publ_author_name
'Jobic, S.'
'le Boterf, P.'
'Bodenan, F.'
'Ouvrard, G.'
_cell_length_a 8.6652(3)
_cell_length_b 3.6188(3)
_cell_length_c 12.8720(9)
_cell_angle_alpha 90.
_cell_angle_beta 90.
_cell_angle_gamma 90.
_cell_volume 403.64
_cell_formula_units_Z 4
_symmetry_space_group_name_H-M 'P n m a'
_symmetry_Int_Tables_number 62
_refine_ls_R_factor_all 0.037
loop_
_symmetry_equiv_pos_site_id
_symmetry_equiv_pos_as_xyz
1 'x+1/2, y, -z+1/2'
2 'x, -y+1/2, z'
3 '-x+1/2, y+1/2, z+1/2'
4 '-x, -y, -z'
5 '-x+1/2, -y, z+1/2'
6 '-x, y+1/2, -z'
7 'x+1/2, -y+1/2, -z+1/2'
8 'x, y, z'
loop_
_atom_type_symbol
_atom_type_oxidation_number
Sb3+ 3
S2- -2
Cr3+ 3
loop_
_atom_site_label
_atom_site_type_symbol
_atom_site_symmetry_multiplicity
_atom_site_Wyckoff_symbol
_atom_site_fract_x
_atom_site_fract_y
_atom_site_fract_z
_atom_site_B_iso_or_equiv
_atom_site_occupancy
_atom_site_attached_hydrogens
Sb1 Sb3+ 4 c 0.9738(1) 0.75 0.33919(2) . 1. 0
S1 S2- 4 c 0.9964(3) 0.75 0.1077(2) . 1. 0
S2 S2- 4 c 0.7871(4) 0.25 0.2887(2) . 1. 0
S3 S2- 4 c 0.8285(4) 0.75 0.5105(2) . 1. 0
Cr1 Cr3+ 4 c 0.1539(2) 0.25 0.0452(2) . 1. 0
loop_
_atom_site_aniso_label
_atom_site_aniso_type_symbol
_atom_site_aniso_U_11
_atom_site_aniso_U_22
_atom_site_aniso_U_33
_atom_site_aniso_U_12
_atom_site_aniso_U_13
_atom_site_aniso_U_23
Sb1 Sb3+ 0.0100(4) 0.0066(4) 0.0190(4) 0 0.0027(5) 0
S1 S2- 0.007(2) 0.006(1) 0.008(1) 0 0.000(1) 0
S2 S2- 0.012(2) 0.009(2) 0.010(2) 0 0.000(1) 0
S3 S2- 0.009(1) 0.009(1) 0.009(1) 0 -.001(1) 0
Cr1 Cr3+ 0.009(1) 0.006(1) 0.008(1) 0 -.0004(8) 0
#End of TTdata_74601-ICSD