
#(C) 2017 by FIZ Karlsruhe - Leibniz Institute for Information Infrastructure.  All rights reserved.
data_74698-ICSD
_database_code_ICSD 74698
_audit_creation_date 1995-10-17
_audit_update_record 2017-08-01
_chemical_name_systematic 'Lead niobium(II) sulfide'
_chemical_formula_structural 'Pb Nb S2'
_chemical_formula_sum 'Nb1 Pb1 S2'
_chemical_name_structure_type SnTaS2
_exptl_crystal_density_diffrn 7.05
_publ_section_title

;
A generalized scheme for niobium and tantalum dichalcogenides intercalated
with post-transition elements
;
loop_
_citation_id
_citation_journal_full
_citation_year
_citation_journal_volume
_citation_page_first
_citation_page_last
_citation_journal_id_ASTM
primary 'Physica B and C (Netherland) (79,1975-)' 1980 99 121 127 PHBCDQ
loop_
_publ_author_name
'Eppinga, R.'
'Wiegers, G.A.'
_cell_length_a 3.343
_cell_length_b 3.343
_cell_length_c 17.73
_cell_angle_alpha 90.
_cell_angle_beta 90.
_cell_angle_gamma 120.
_cell_volume 171.6
_cell_formula_units_Z 2
_symmetry_space_group_name_H-M 'P 63/m m c'
_symmetry_Int_Tables_number 194
loop_
_symmetry_equiv_pos_site_id
_symmetry_equiv_pos_as_xyz
1 'x, x-y, -z+1/2'
2 '-x+y, y, -z+1/2'
3 '-y, -x, -z+1/2'
4 '-x+y, -x, -z+1/2'
5 '-y, x-y, -z+1/2'
6 'x, y, -z+1/2'
7 '-x, -x+y, z+1/2'
8 'x-y, -y, z+1/2'
9 'y, x, z+1/2'
10 'x-y, x, z+1/2'
11 'y, -x+y, z+1/2'
12 '-x, -y, z+1/2'
13 '-x, -x+y, -z'
14 'x-y, -y, -z'
15 'y, x, -z'
16 'x-y, x, -z'
17 'y, -x+y, -z'
18 '-x, -y, -z'
19 'x, x-y, z'
20 '-x+y, y, z'
21 '-y, -x, z'
22 '-x+y, -x, z'
23 '-y, x-y, z'
24 'x, y, z'
loop_
_atom_type_symbol
_atom_type_oxidation_number
Nb2+ 2
Pb2+ 2
S2- -2
loop_
_atom_site_label
_atom_site_type_symbol
_atom_site_symmetry_multiplicity
_atom_site_Wyckoff_symbol
_atom_site_fract_x
_atom_site_fract_y
_atom_site_fract_z
_atom_site_B_iso_or_equiv
_atom_site_occupancy
_atom_site_attached_hydrogens
Nb1 Nb2+ 2 c 0.3333 0.6667 0.25 . 1. 0
Pb1 Pb2+ 2 a 0 0 0 . 1. 0
S1 S2- 4 e 0 0 0.33 . 1. 0
#End of TTdata_74698-ICSD