
#(C) 2017 by FIZ Karlsruhe - Leibniz Institute for Information Infrastructure.  All rights reserved.
data_74832-ICSD
_database_code_ICSD 74832
_audit_creation_date 1995-10-17
_audit_update_record 2013-08-01
_chemical_name_systematic 'Tetracesium octaselenidodigermanate'
_chemical_formula_structural 'Cs4 (Ge2 Se8)'
_chemical_formula_sum 'Cs4 Ge2 Se8'
_chemical_name_structure_type Cs2GeSe4
_exptl_crystal_density_diffrn 4.35
_publ_section_title

;
Darstellung und Kristallstruktur der Caesium-Selenidogermanate(IV) Cs4 Ge4
Se10 * 2(C H3 O H) und Cs4 Ge2 Se8
;
loop_
_citation_id
_citation_journal_full
_citation_year
_citation_journal_volume
_citation_page_first
_citation_page_last
_citation_journal_id_ASTM
primary 'Zeitschrift fuer Naturforschung, B: Chemical Sciences' 1994 49 655 659
ZNBSEN
loop_
_publ_author_name
'Sheldrick, W.S.'
'Schaaf, B.'
_cell_length_a 15.278(4)
_cell_length_b 7.624(3)
_cell_length_c 10.090(3)
_cell_angle_alpha 90.
_cell_angle_beta 121.71(2)
_cell_angle_gamma 90.
_cell_volume 999.83
_cell_formula_units_Z 2
_symmetry_space_group_name_H-M 'C 1 2/m 1'
_symmetry_Int_Tables_number 12
_refine_ls_R_factor_all 0.045
loop_
_symmetry_equiv_pos_site_id
_symmetry_equiv_pos_as_xyz
1 '-x, y, -z'
2 '-x, -y, -z'
3 'x, -y, z'
4 'x, y, z'
5 '-x+1/2, y+1/2, -z'
6 '-x+1/2, -y+1/2, -z'
7 'x+1/2, -y+1/2, z'
8 'x+1/2, y+1/2, z'
loop_
_atom_type_symbol
_atom_type_oxidation_number
Cs1+ 1
Ge4+ 4
Se2- -2
Se1- -1
loop_
_atom_site_label
_atom_site_type_symbol
_atom_site_symmetry_multiplicity
_atom_site_Wyckoff_symbol
_atom_site_fract_x
_atom_site_fract_y
_atom_site_fract_z
_atom_site_B_iso_or_equiv
_atom_site_occupancy
_atom_site_attached_hydrogens
Cs1 Cs1+ 4 i 0.1594(1) 0 0.2839(2) . 1. 0
Cs2 Cs1+ 4 i 0.4100(1) 0 0.1436(2) . 1. 0
Ge1 Ge4+ 4 i 0.1576(2) 0 0.7014(2) . 1. 0
Se1 Se2- 4 i 0.1256(2) 0 0.8969(2) . 1. 0
Se2 Se2- 4 i 0.3171(2) 0 0.7316(3) . 1. 0
Se3 Se1- 8 j 0.0857(1) 0.2496(2) 0.5312(2) . 1. 0
loop_
_atom_site_aniso_label
_atom_site_aniso_type_symbol
_atom_site_aniso_U_11
_atom_site_aniso_U_22
_atom_site_aniso_U_33
_atom_site_aniso_U_12
_atom_site_aniso_U_13
_atom_site_aniso_U_23
Cs1 Cs1+ 0.033(1) 0.032(1) 0.032(1) 0 0.019(1) 0
Cs2 Cs1+ 0.031(1) 0.032(1) 0.027(1) 0 0.013(1) 0
Ge1 Ge4+ 0.020(1) 0.020(1) 0.023(1) 0 0.011(1) 0
Se1 Se2- 0.031(1) 0.035(1) 0.026(1) 0 0.018(1) 0
Se2 Se2- 0.021(1) 0.038(1) 0.034(1) 0 0.014(1) 0
Se3 Se1- 0.026(1) 0.020(1) 0.027(1) -.003(1) 0.014(1) 0.001(1)
#End of TTdata_74832-ICSD