
#(C) 2017 by FIZ Karlsruhe - Leibniz Institute for Information Infrastructure.  All rights reserved.
data_74837-ICSD
_database_code_ICSD 74837
_audit_creation_date 1995-10-17
_chemical_name_systematic 'Rubidium telluride (1/6)'
_chemical_formula_structural 'Rb Te6'
_chemical_formula_sum 'Rb1 Te6'
_exptl_crystal_density_diffrn 5.61
_publ_section_title 'RbTe6, ein Polytellurid mit Schichtstruktur 2(Te6(-))'
loop_
_citation_id
_citation_journal_full
_citation_year
_citation_journal_volume
_citation_page_first
_citation_page_last
_citation_journal_id_ASTM
primary 'Zeitschrift fuer Naturforschung, B: Chemical Sciences' 1994 49 993 996
ZNBSEN
loop_
_publ_author_name
'Sheldrick, W.S.'
'Schaaf, B.'
_cell_length_a 11.300(2)
_cell_length_b 7.443(1)
_cell_length_c 12.702(3)
_cell_angle_alpha 90.
_cell_angle_beta 109.37(3)
_cell_angle_gamma 90.
_cell_volume 1007.84
_cell_formula_units_Z 4
_symmetry_space_group_name_H-M 'C 1 2/c 1'
_symmetry_Int_Tables_number 15
_refine_ls_R_factor_all 0.066
loop_
_symmetry_equiv_pos_site_id
_symmetry_equiv_pos_as_xyz
1 'x, -y, z+1/2'
2 '-x, -y, -z'
3 '-x, y, -z+1/2'
4 'x, y, z'
5 'x+1/2, -y+1/2, z+1/2'
6 '-x+1/2, -y+1/2, -z'
7 '-x+1/2, y+1/2, -z+1/2'
8 'x+1/2, y+1/2, z'
loop_
_atom_type_symbol
_atom_type_oxidation_number
Te0+ -0.17
Rb1+ 1
loop_
_atom_site_label
_atom_site_type_symbol
_atom_site_symmetry_multiplicity
_atom_site_Wyckoff_symbol
_atom_site_fract_x
_atom_site_fract_y
_atom_site_fract_z
_atom_site_B_iso_or_equiv
_atom_site_occupancy
_atom_site_attached_hydrogens
Te1 Te0+ 8 f 0.2093(2) 0.0212(2) 0.3557(2) . 1. 0
Te2 Te0+ 8 f 0.1854(2) 0.0413(2) 0.5991(2) . 1. 0
Te3 Te0+ 8 f 0.0811(2) 0.6978(2) 0.5633(1) . 1. 0
Rb1 Rb1+ 4 e 0 0.6366(5) 0.25 . 1. 0
loop_
_atom_site_aniso_label
_atom_site_aniso_type_symbol
_atom_site_aniso_U_11
_atom_site_aniso_U_22
_atom_site_aniso_U_33
_atom_site_aniso_U_12
_atom_site_aniso_U_13
_atom_site_aniso_U_23
Te1 Te0+ 0.058(1) 0.029(1) 0.039(1) -.002(1) 0.002(1) 0.011(1)
Te2 Te0+ 0.047(1) 0.027(1) 0.050(1) -.005(1) 0.026(1) -.005(1)
Te3 Te0+ 0.048(1) 0.025(1) 0.027(1) -.006(1) 0.015(1) -.003(1)
Rb1 Rb1+ 0.052(2) 0.042(2) 0.032(2) 0 0.018(2) 0
#End of TTdata_74837-ICSD