
#(C) 2017 by FIZ Karlsruhe - Leibniz Institute for Information Infrastructure.  All rights reserved.
data_75241-ICSD
_database_code_ICSD 75241
_audit_creation_date 1995-10-17
_chemical_name_systematic 'Tribarium dizirconium sulfide'
_chemical_formula_structural 'Ba3 Zr2 S7'
_chemical_formula_sum 'Ba3 S7 Zr2'
_chemical_name_structure_type Sr3Ti2O7
_exptl_crystal_density_diffrn 4.27
_cell_measurement_temperature 295.
_publ_section_title
'Structural reinvestigation of Ba3Zr2S7 by single-crystal X-ray diffraction'
loop_
_citation_id
_citation_journal_full
_citation_year
_citation_journal_volume
_citation_page_first
_citation_page_last
_citation_journal_id_ASTM
primary 'Acta Crystallographica, Section C: Crystal Structure Communications'
1994 50 161 164 ACSCEE
loop_
_publ_author_name
'Chen, B.-H.'
'Eichhorn, B.W.'
'Wong-Ng, W.'
_cell_length_a 4.9983(7)
_cell_length_b 4.9983(7)
_cell_length_c 25.502(5)
_cell_angle_alpha 90.
_cell_angle_beta 90.
_cell_angle_gamma 90.
_cell_volume 637.12
_cell_formula_units_Z 2
_symmetry_space_group_name_H-M 'I 4/m m m'
_symmetry_Int_Tables_number 139
_refine_ls_R_factor_all 0.054
loop_
_symmetry_equiv_pos_site_id
_symmetry_equiv_pos_as_xyz
1 'y, x, -z'
2 '-y, -x, -z'
3 '-y, x, -z'
4 'y, -x, -z'
5 '-x, y, -z'
6 'x, -y, -z'
7 'x, y, -z'
8 '-x, -y, -z'
9 '-y, -x, z'
10 'y, x, z'
11 'y, -x, z'
12 '-y, x, z'
13 'x, -y, z'
14 '-x, y, z'
15 '-x, -y, z'
16 'x, y, z'
17 'y+1/2, x+1/2, -z+1/2'
18 '-y+1/2, -x+1/2, -z+1/2'
19 '-y+1/2, x+1/2, -z+1/2'
20 'y+1/2, -x+1/2, -z+1/2'
21 '-x+1/2, y+1/2, -z+1/2'
22 'x+1/2, -y+1/2, -z+1/2'
23 'x+1/2, y+1/2, -z+1/2'
24 '-x+1/2, -y+1/2, -z+1/2'
25 '-y+1/2, -x+1/2, z+1/2'
26 'y+1/2, x+1/2, z+1/2'
27 'y+1/2, -x+1/2, z+1/2'
28 '-y+1/2, x+1/2, z+1/2'
29 'x+1/2, -y+1/2, z+1/2'
30 '-x+1/2, y+1/2, z+1/2'
31 '-x+1/2, -y+1/2, z+1/2'
32 'x+1/2, y+1/2, z+1/2'
loop_
_atom_type_symbol
_atom_type_oxidation_number
Ba2+ 2
Zr4+ 4
S2- -2
loop_
_atom_site_label
_atom_site_type_symbol
_atom_site_symmetry_multiplicity
_atom_site_Wyckoff_symbol
_atom_site_fract_x
_atom_site_fract_y
_atom_site_fract_z
_atom_site_B_iso_or_equiv
_atom_site_occupancy
_atom_site_attached_hydrogens
Ba1 Ba2+ 2 a 0 0 0 . 1. 0
Ba2 Ba2+ 4 e 0 0 0.18180(6) . 1. 0
Zr1 Zr4+ 4 e 0 0 0.40042(7) . 1. 0
S1 S2- 8 g 0 0.5 0.4048(2) . 1. 0
S2 S2- 4 e 0 0 0.3023(2) . 1. 0
S3 S2- 2 b 0 0 0.5 . 1. 0
loop_
_atom_site_aniso_label
_atom_site_aniso_type_symbol
_atom_site_aniso_U_11
_atom_site_aniso_U_22
_atom_site_aniso_U_33
_atom_site_aniso_U_12
_atom_site_aniso_U_13
_atom_site_aniso_U_23
Ba1 Ba2+ 0.0264(5) 0.0264(5) 0.0194(7) 0 0 0
Ba2 Ba2+ 0.0369(5) 0.0369(5) 0.0165(5) 0 0 0
Zr1 Zr4+ 0.0117(4) 0.0117(4) 0.0179(8) 0 0 0
S1 S2- 0.031(2) 0.013(1) 0.072(3) 0 0 0
S2 S2- 0.069(3) 0.069(3) 0.008(2) 0 0 0
S3 S2- 0.086(5) 0.086(5) 0.001(2) 0 0 0
#End of TTdata_75241-ICSD