
#(C) 2017 by FIZ Karlsruhe - Leibniz Institute for Information Infrastructure.  All rights reserved.
data_75384-ICSD
_database_code_ICSD 75384
_audit_creation_date 1996-04-22
_audit_update_record 2012-08-01
_chemical_name_systematic 'Chromium(II) niobium(IV) fluoride'
_chemical_formula_structural 'Cr Nb F6'
_chemical_formula_sum 'Cr1 F6 Nb1'
_exptl_crystal_density_diffrn 3.31
_publ_section_title
'Synthesis, structural and spectroscopic studies of Cr(II) Nb(I) V F6'
loop_
_citation_id
_citation_journal_full
_citation_year
_citation_journal_volume
_citation_page_first
_citation_page_last
_citation_journal_id_ASTM
primary 'European Journal of Solid State Inorganic Chemistry' 1994 31 223 233
EJSCE5
loop_
_publ_author_name
'Goubard, F.'
'Chassaing, J.'
'Bizot, D.'
'Quarton, M.'
_cell_length_a 5.5402(6)
_cell_length_b 5.5402(6)
_cell_length_c 8.453(1)
_cell_angle_alpha 90.
_cell_angle_beta 90.
_cell_angle_gamma 90.
_cell_volume 259.45
_cell_formula_units_Z 2
_symmetry_space_group_name_H-M 'I 4/m m m'
_symmetry_Int_Tables_number 139
_refine_ls_R_factor_all 0.072
loop_
_symmetry_equiv_pos_site_id
_symmetry_equiv_pos_as_xyz
1 'y, x, -z'
2 '-y, -x, -z'
3 '-y, x, -z'
4 'y, -x, -z'
5 '-x, y, -z'
6 'x, -y, -z'
7 'x, y, -z'
8 '-x, -y, -z'
9 '-y, -x, z'
10 'y, x, z'
11 'y, -x, z'
12 '-y, x, z'
13 'x, -y, z'
14 '-x, y, z'
15 '-x, -y, z'
16 'x, y, z'
17 'y+1/2, x+1/2, -z+1/2'
18 '-y+1/2, -x+1/2, -z+1/2'
19 '-y+1/2, x+1/2, -z+1/2'
20 'y+1/2, -x+1/2, -z+1/2'
21 '-x+1/2, y+1/2, -z+1/2'
22 'x+1/2, -y+1/2, -z+1/2'
23 'x+1/2, y+1/2, -z+1/2'
24 '-x+1/2, -y+1/2, -z+1/2'
25 '-y+1/2, -x+1/2, z+1/2'
26 'y+1/2, x+1/2, z+1/2'
27 'y+1/2, -x+1/2, z+1/2'
28 '-y+1/2, x+1/2, z+1/2'
29 'x+1/2, -y+1/2, z+1/2'
30 '-x+1/2, y+1/2, z+1/2'
31 '-x+1/2, -y+1/2, z+1/2'
32 'x+1/2, y+1/2, z+1/2'
loop_
_atom_type_symbol
_atom_type_oxidation_number
Cr2+ 2
Nb4+ 4
F1- -1
loop_
_atom_site_label
_atom_site_type_symbol
_atom_site_symmetry_multiplicity
_atom_site_Wyckoff_symbol
_atom_site_fract_x
_atom_site_fract_y
_atom_site_fract_z
_atom_site_B_iso_or_equiv
_atom_site_occupancy
_atom_site_attached_hydrogens
Cr1 Cr2+ 2 b 0 0 0.5 1.6(2) 1. 0
Nb1 Nb4+ 2 a 0 0 0 0.6(1) 1. 0
F1 F1- 8 h 0.244(3) 0.244(3) 0 3.5(2) 1. 0
F2 F1- 4 e 0 0 0.216(4) 3.5(2) 1. 0
#End of TTdata_75384-ICSD