
#(C) 2017 by FIZ Karlsruhe - Leibniz Institute for Information Infrastructure.  All rights reserved.
data_75960-ICSD
_database_code_ICSD 75960
_audit_creation_date 1996-04-22
_chemical_name_systematic 'Thallium diselenide bromide'
_chemical_formula_structural 'Tl5 Se2 Br'
_chemical_formula_sum 'Br1 Se2 Tl5'
_chemical_name_structure_type Tl5Se2I
_exptl_crystal_density_diffrn 8.86
_publ_section_title
'Syntheses and crystal structures of Tl5 Se2 Cl and Tl5 Se2 Br'
loop_
_citation_id
_citation_journal_full
_citation_year
_citation_journal_volume
_citation_page_first
_citation_page_last
_citation_journal_id_ASTM
primary 'Journal of Alloys and Compounds' 1994 209 151 157 JALCEU
loop_
_publ_author_name
'Doert, T.'
'Asmuth, R.'
'Boettcher, P.'
_cell_length_a 8.594(2)
_cell_length_b 8.594(2)
_cell_length_c 12.788(4)
_cell_angle_alpha 90.
_cell_angle_beta 90.
_cell_angle_gamma 90.
_cell_volume 944.48
_cell_formula_units_Z 4
_symmetry_space_group_name_H-M 'I 4/m c m'
_symmetry_Int_Tables_number 140
_refine_ls_R_factor_all 0.047
loop_
_symmetry_equiv_pos_site_id
_symmetry_equiv_pos_as_xyz
1 'y, x, -z+1/2'
2 '-y, -x, -z+1/2'
3 '-y, x, -z'
4 'y, -x, -z'
5 'x, -y, -z+1/2'
6 '-x, y, -z+1/2'
7 'x, y, -z'
8 '-x, -y, -z'
9 '-y, -x, z+1/2'
10 'y, x, z+1/2'
11 'y, -x, z'
12 '-y, x, z'
13 '-x, y, z+1/2'
14 'x, -y, z+1/2'
15 '-x, -y, z'
16 'x, y, z'
17 'y+1/2, x+1/2, -z'
18 '-y+1/2, -x+1/2, -z'
19 '-y+1/2, x+1/2, -z+1/2'
20 'y+1/2, -x+1/2, -z+1/2'
21 'x+1/2, -y+1/2, -z'
22 '-x+1/2, y+1/2, -z'
23 'x+1/2, y+1/2, -z+1/2'
24 '-x+1/2, -y+1/2, -z+1/2'
25 '-y+1/2, -x+1/2, z'
26 'y+1/2, x+1/2, z'
27 'y+1/2, -x+1/2, z+1/2'
28 '-y+1/2, x+1/2, z+1/2'
29 '-x+1/2, y+1/2, z'
30 'x+1/2, -y+1/2, z'
31 '-x+1/2, -y+1/2, z+1/2'
32 'x+1/2, y+1/2, z+1/2'
loop_
_atom_type_symbol
_atom_type_oxidation_number
Tl1+ 1
Br1- -1
Se2- -2
loop_
_atom_site_label
_atom_site_type_symbol
_atom_site_symmetry_multiplicity
_atom_site_Wyckoff_symbol
_atom_site_fract_x
_atom_site_fract_y
_atom_site_fract_z
_atom_site_B_iso_or_equiv
_atom_site_occupancy
_atom_site_attached_hydrogens
Tl1 Tl1+ 4 c 0 0 0 . 1. 0
Tl2 Tl1+ 16 l 0.1474(1) 0.6474(1) 0.1480(1) . 1. 0
Br1 Br1- 4 a 0 0 0.25 . 1. 0
Se1 Se2- 8 h 0.3404(4) 0.8404(4) 0 . 1. 0
loop_
_atom_site_aniso_label
_atom_site_aniso_type_symbol
_atom_site_aniso_U_11
_atom_site_aniso_U_22
_atom_site_aniso_U_33
_atom_site_aniso_U_12
_atom_site_aniso_U_13
_atom_site_aniso_U_23
Tl1 Tl1+ 0.018(1) 0.018(1) 0.077(2) 0 0 0
Tl2 Tl1+ 0.023(1) 0.023(1) 0.016(1) -.004(1) 0.004(1) 0.004(1)
Br1 Br1- 0.012(3) 0.012(3) 0.106(8) 0 0 0
Se1 Se2- 0.010(2) 0.010(2) 0.015(2) -.007(2) 0 0
#End of TTdata_75960-ICSD