
#(C) 2017 by FIZ Karlsruhe - Leibniz Institute for Information Infrastructure.  All rights reserved.
data_76203-ICSD
_database_code_ICSD 76203
_audit_creation_date 2000-12-16
_chemical_name_systematic 'Manganese rhodium silicide (1/1/1)'
_chemical_formula_structural 'Mn Rh Si'
_chemical_formula_sum 'Mn1 Rh1 Si1'
_chemical_name_structure_type TiNiSi-MgSrSi
_exptl_crystal_density_diffrn 7.33
_cell_measurement_temperature 80.
_publ_section_title 'Magnetic properties of Rh Mn Si and Co Ti Si'
loop_
_citation_id
_citation_journal_full
_citation_year
_citation_journal_volume
_citation_page_first
_citation_page_last
_citation_journal_id_ASTM
primary 'Physica Status Solidi A - Applications and Materials' 1984 82 195 200
PSSABA
loop_
_publ_author_name
'Bazela-Wrobel, W.'
'Szytula, A.'
'Leciejewicz, J.'
_cell_length_a 6.173(5)
_cell_length_b 3.788(3)
_cell_length_c 7.131(9)
_cell_angle_alpha 90.
_cell_angle_beta 90.
_cell_angle_gamma 90.
_cell_volume 166.75
_cell_formula_units_Z 4
_symmetry_space_group_name_H-M 'P n m a'
_symmetry_Int_Tables_number 62
_refine_ls_R_factor_all 0.067
loop_
_symmetry_equiv_pos_site_id
_symmetry_equiv_pos_as_xyz
1 'x+1/2, y, -z+1/2'
2 'x, -y+1/2, z'
3 '-x+1/2, y+1/2, z+1/2'
4 '-x, -y, -z'
5 '-x+1/2, -y, z+1/2'
6 '-x, y+1/2, -z'
7 'x+1/2, -y+1/2, -z+1/2'
8 'x, y, z'
loop_
_atom_type_symbol
_atom_type_oxidation_number
Mn0+ 0
Rh0+ 0
Si0+ 0
loop_
_atom_site_label
_atom_site_type_symbol
_atom_site_symmetry_multiplicity
_atom_site_Wyckoff_symbol
_atom_site_fract_x
_atom_site_fract_y
_atom_site_fract_z
_atom_site_B_iso_or_equiv
_atom_site_occupancy
_atom_site_attached_hydrogens
Mn1 Mn0+ 4 c 0.0121 0.25 0.197 . 1. 0
Rh1 Rh0+ 4 c 0.145 0.25 0.5584 . 1. 0
Si1 Si0+ 4 c 0.783 0.25 0.6224 . 1. 0
#End of TTdata_76203-ICSD