
data_76297-ICSD
_database_code_ICSD 76297
_audit_creation_date 2000-12-16
_chemical_name_systematic 'Yttrium nickel aluminum germanide (3/1/3/2)'
_chemical_formula_structural 'Y3 Ni Al3 Ge2'
_chemical_formula_sum 'Al3 Ge2 Ni1 Y3'
_chemical_name_structure_type ZrNiAl-Fe2P
_exptl_crystal_density_diffrn 5.27
_cell_length_a 6.9481(6)
_cell_length_b 6.9481
_cell_length_c 4.1565(5)
_cell_angle_alpha 90.
_cell_angle_beta 90.
_cell_angle_gamma 120.
_cell_volume 173.78
_cell_formula_units_Z 1
_symmetry_space_group_name_H-M 'P -6 2 m'
_symmetry_Int_Tables_number 189
_refine_ls_R_factor_all 0.062
loop_
_symmetry_equiv_pos_site_id
_symmetry_equiv_pos_as_xyz
1 '-x, -x+y, -z'
2 'x-y, -y, -z'
3 'y, x, -z'
4 '-x, -x+y, z'
5 'x-y, -y, z'
6 'y, x, z'
7 '-x+y, -x, -z'
8 '-y, x-y, -z'
9 'x, y, -z'
10 '-x+y, -x, z'
11 '-y, x-y, z'
12 'x, y, z'
loop_
_atom_type_symbol
_atom_type_oxidation_number
Y0+ 0
Ni0+ 0
Al0+ 0
Ge0+ 0
loop_
_atom_site_label
_atom_site_type_symbol
_atom_site_symmetry_multiplicity
_atom_site_Wyckoff_symbol
_atom_site_fract_x
_atom_site_fract_y
_atom_site_fract_z
_atom_site_B_iso_or_equiv
_atom_site_occupancy
_atom_site_attached_hydrogens
Y1 Y0+ 3 f 0.5963(2) 0 0 0.0062(2) 1. 0
Ni1 Ni0+ 1 a 0 0 0 0.0099(6) 1. 0
Al1 Al0+ 3 g 0.2268(6) 0 0.5 0.0040(7) 1. 0
Ge1 Ge0+ 2 d 0.3333 0.6667 0.5 0.0067(3) 1. 0
