
#(C) 2017 by FIZ Karlsruhe - Leibniz Institute for Information Infrastructure.  All rights reserved.
data_76359-ICSD
_database_code_ICSD 76359
_audit_creation_date 2000-12-16
_audit_update_record 2006-10-01
_chemical_name_systematic 'Lanthanum aluminum germanide (2/3/4)'
_chemical_formula_structural 'La2 Al3 Ge4'
_chemical_formula_sum 'Al3 Ge4 La2'
_chemical_name_structure_type Hf2Ni3Si4
_exptl_crystal_density_diffrn 5.74
_publ_section_title

;
La2 Al3 Ge4 and isotypes of the orthorhombic Ba2 Cd3 Bi4 type, a slab-stacking
variant of the Hf Fe2 Si2 type
;
loop_
_citation_id
_citation_journal_full
_citation_year
_citation_journal_volume
_citation_page_first
_citation_page_last
_citation_journal_id_ASTM
primary 'Acta Crystallographica, Section C: Crystal Structure Communications'
1991 47 1781 1784 ACSCEE
loop_
_publ_author_name
'Zhao, J.-T.'
'Parthe, E.'
_cell_length_a 6.146(2)
_cell_length_b 15.194(4)
_cell_length_c 8.037(3)
_cell_angle_alpha 90.
_cell_angle_beta 90.
_cell_angle_gamma 90.
_cell_volume 750.51
_cell_formula_units_Z 4
_symmetry_space_group_name_H-M 'C m c a'
_symmetry_Int_Tables_number 64
_refine_ls_R_factor_all 0.04
loop_
_symmetry_equiv_pos_site_id
_symmetry_equiv_pos_as_xyz
1 '-x, -y+1/2, z+1/2'
2 '-x, y+1/2, -z+1/2'
3 '-x, y, z'
4 '-x, -y, -z'
5 'x, y+1/2, -z+1/2'
6 'x, -y+1/2, z+1/2'
7 'x, -y, -z'
8 'x, y, z'
9 '-x+1/2, -y, z+1/2'
10 '-x+1/2, y, -z+1/2'
11 '-x+1/2, y+1/2, z'
12 '-x+1/2, -y+1/2, -z'
13 'x+1/2, y, -z+1/2'
14 'x+1/2, -y, z+1/2'
15 'x+1/2, -y+1/2, -z'
16 'x+1/2, y+1/2, z'
loop_
_atom_type_symbol
_atom_type_oxidation_number
La0+ 0
Al0+ 0
Ge0+ 0
loop_
_atom_site_label
_atom_site_type_symbol
_atom_site_symmetry_multiplicity
_atom_site_Wyckoff_symbol
_atom_site_fract_x
_atom_site_fract_y
_atom_site_fract_z
_atom_site_B_iso_or_equiv
_atom_site_occupancy
_atom_site_attached_hydrogens
La1 La0+ 8 f 0 0.11389(7) 0.4170(1) 0.0064(5) 1. 0
Al1 Al0+ 8 e 0.25 0.2842(1) 0.25 0.016(3) 1. 0
Al2 Al0+ 4 a 0 0 0 0.016(5) 1. 0
Ge1 Ge0+ 8 f 0 0.1873(1) 0.0531(2) 0.008(1) 1. 0
Ge2 Ge0+ 8 e 0.25 0.4512(1) 0.25 0.009(1) 1. 0
#End of TTdata_76359-ICSD