
#(C) 2017 by FIZ Karlsruhe - Leibniz Institute for Information Infrastructure.  All rights reserved.
data_76409-ICSD
_database_code_ICSD 76409
_audit_creation_date 2000-12-16
_audit_update_record 2011-02-01
_chemical_name_systematic 'Manganese arsenide (3/1)'
_chemical_formula_structural 'Mn3 As'
_chemical_formula_sum 'As1 Mn3'
_chemical_name_structure_type Mn3As
_exptl_crystal_density_diffrn 6.81
_publ_section_title
'Kristallchemische Untersuchungen in den Systemen Mn-As, V-Sb, Ti-Sb'
loop_
_citation_id
_citation_journal_full
_citation_year
_citation_journal_volume
_citation_page_first
_citation_page_last
_citation_journal_id_ASTM
primary 'Monatshefte fuer Chemie' 1951 82 513 525 MOCHAP
loop_
_publ_author_name
'Nowotny, H.N.'
'Funk, R.'
'Pesl, J.'
_cell_length_a 3.788
_cell_length_b 3.788
_cell_length_c 16.29
_cell_angle_alpha 90.
_cell_angle_beta 90.
_cell_angle_gamma 90.
_cell_volume 233.74
_cell_formula_units_Z 4
_symmetry_space_group_name_H-M 'P m m n S'
_symmetry_Int_Tables_number 59
loop_
_symmetry_equiv_pos_site_id
_symmetry_equiv_pos_as_xyz
1 'x+1/2, -y+1/2, -z'
2 'x+1/2, y+1/2, -z'
3 'x, -y, z'
4 '-x, y, z'
5 '-x+1/2, y+1/2, -z'
6 '-x+1/2, -y+1/2, -z'
7 '-x, -y, z'
8 'x, y, z'
loop_
_atom_type_symbol
_atom_type_oxidation_number
Mn0+ 0
As0+ 0
loop_
_atom_site_label
_atom_site_type_symbol
_atom_site_symmetry_multiplicity
_atom_site_Wyckoff_symbol
_atom_site_fract_x
_atom_site_fract_y
_atom_site_fract_z
_atom_site_B_iso_or_equiv
_atom_site_occupancy
_atom_site_attached_hydrogens
Mn1 Mn0+ 2 a 0 0 0.1935 . 1. 0
Mn2 Mn0+ 2 a 0 0 -.1935 . 1. 0
Mn3 Mn0+ 2 a 0 0 0.5655 . 1. 0
Mn4 Mn0+ 2 b 0 0.5 0.3065 . 1. 0
Mn5 Mn0+ 2 b 0 0.5 -.3065 . 1. 0
Mn6 Mn0+ 2 b 0 0.5 -.0655 . 1. 0
As1 As0+ 2 a 0 0 0.409 . 1. 0
As2 As0+ 2 b 0 0.5 0.091 . 1. 0
#End of TTdata_76409-ICSD