
#(C) 2017 by FIZ Karlsruhe - Leibniz Institute for Information Infrastructure.  All rights reserved.
data_76568-ICSD
_database_code_ICSD 76568
_audit_creation_date 2007-04-01
_audit_update_record 2015-02-01
_chemical_name_systematic 'Niobium sulfide (21/8)'
_chemical_formula_structural 'Nb21 S8'
_chemical_formula_sum 'Nb21 S8'
_chemical_name_structure_type Nb21S8
_exptl_crystal_density_diffrn 7.74
_publ_section_title 'The crystal structure of Nb21 S8'
loop_
_citation_id
_citation_journal_full
_citation_year
_citation_journal_volume
_citation_page_first
_citation_page_last
_citation_journal_id_ASTM
primary 'Acta Crystallographica B (24,1968-38,1982)' 1968 24 412 416 ACBCAR
loop_
_publ_author_name
'Franzen, H.F.'
'Beineke, T.A.'
'Conrad, B.R.'
_cell_length_a 16.794(5)
_cell_length_b 16.794(5)
_cell_length_c 3.359(2)
_cell_angle_alpha 90.
_cell_angle_beta 90.
_cell_angle_gamma 90.
_cell_volume 947.37
_cell_formula_units_Z 2
_symmetry_space_group_name_H-M 'I 4/m'
_symmetry_Int_Tables_number 87
loop_
_symmetry_equiv_pos_site_id
_symmetry_equiv_pos_as_xyz
1 '-y, x, -z'
2 'y, -x, -z'
3 'x, y, -z'
4 '-x, -y, -z'
5 'y, -x, z'
6 '-y, x, z'
7 '-x, -y, z'
8 'x, y, z'
9 '-y+1/2, x+1/2, -z+1/2'
10 'y+1/2, -x+1/2, -z+1/2'
11 'x+1/2, y+1/2, -z+1/2'
12 '-x+1/2, -y+1/2, -z+1/2'
13 'y+1/2, -x+1/2, z+1/2'
14 '-y+1/2, x+1/2, z+1/2'
15 '-x+1/2, -y+1/2, z+1/2'
16 'x+1/2, y+1/2, z+1/2'
loop_
_atom_type_symbol
_atom_type_oxidation_number
Nb0+ 0.76
S2- -2
loop_
_atom_site_label
_atom_site_type_symbol
_atom_site_symmetry_multiplicity
_atom_site_Wyckoff_symbol
_atom_site_fract_x
_atom_site_fract_y
_atom_site_fract_z
_atom_site_B_iso_or_equiv
_atom_site_occupancy
_atom_site_attached_hydrogens
Nb1 Nb0+ 2 a 0 0 0 0.36(5) 1. 0
Nb2 Nb0+ 8 h 0.0813(1) 0.4502(1) 0 0.26(2) 1. 0
Nb3 Nb0+ 8 h 0.2777(1) 0.0202(1) 0 0.58(3) 1. 0
Nb4 Nb0+ 8 h 0.3843(1) 0.1851(1) 0 0.47(3) 1. 0
Nb5 Nb0+ 8 h 0.1919(1) 0.1986(1) 0 0.54(3) 1. 0
Nb6 Nb0+ 8 h 0.4509(1) 0.3643(1) 0 0.53(3) 1. 0
S1 S2- 8 h 0.1377(3) 0.0637(3) 0 0.30(7) 1. 0
S2 S2- 8 h 0.2126(3) 0.3644(3) 0 0.35(7) 1. 0
#End of TTdata_76568-ICSD