
#(C) 2017 by FIZ Karlsruhe - Leibniz Institute for Information Infrastructure.  All rights reserved.
data_76582-ICSD
_database_code_ICSD 76582
_audit_creation_date 2000-12-16
_chemical_name_systematic 'Niobium selenide (5/4)'
_chemical_formula_structural 'Nb5 Se4'
_chemical_formula_sum 'Nb5 Se4'
_chemical_name_structure_type Ti5Te4
_exptl_crystal_density_diffrn 7.7
_publ_section_title 'The crystal structures of Nb5 Se4 and Nb5 Te4'
loop_
_citation_id
_citation_journal_full
_citation_year
_citation_journal_volume
_citation_page_first
_citation_page_last
_citation_journal_id_ASTM
primary 'Acta Chemica Scandinavica (1-27,1973-42,1988)' 1963 17 2560 2574 ACSAA4
loop_
_publ_author_name
'Selte, K.'
'Kjekshus, A.'
_cell_length_a 9.871
_cell_length_b 9.871
_cell_length_c 3.4529
_cell_angle_alpha 90.
_cell_angle_beta 90.
_cell_angle_gamma 90.
_cell_volume 336.44
_cell_formula_units_Z 2
_symmetry_space_group_name_H-M 'I 4/m'
_symmetry_Int_Tables_number 87
loop_
_symmetry_equiv_pos_site_id
_symmetry_equiv_pos_as_xyz
1 '-y, x, -z'
2 'y, -x, -z'
3 'x, y, -z'
4 '-x, -y, -z'
5 'y, -x, z'
6 '-y, x, z'
7 '-x, -y, z'
8 'x, y, z'
9 '-y+1/2, x+1/2, -z+1/2'
10 'y+1/2, -x+1/2, -z+1/2'
11 'x+1/2, y+1/2, -z+1/2'
12 '-x+1/2, -y+1/2, -z+1/2'
13 'y+1/2, -x+1/2, z+1/2'
14 '-y+1/2, x+1/2, z+1/2'
15 '-x+1/2, -y+1/2, z+1/2'
16 'x+1/2, y+1/2, z+1/2'
loop_
_atom_type_symbol
_atom_type_oxidation_number
Nb0+ 0
Se0+ 0
loop_
_atom_site_label
_atom_site_type_symbol
_atom_site_symmetry_multiplicity
_atom_site_Wyckoff_symbol
_atom_site_fract_x
_atom_site_fract_y
_atom_site_fract_z
_atom_site_B_iso_or_equiv
_atom_site_occupancy
_atom_site_attached_hydrogens
Nb1 Nb0+ 2 a 0 0 0 . 1. 0
Nb2 Nb0+ 8 h 0.31 0.38 0 . 1. 0
Se1 Se0+ 8 h 0.06 0.28 0 . 1. 0
#End of TTdata_76582-ICSD