
#(C) 2017 by FIZ Karlsruhe - Leibniz Institute for Information Infrastructure.  All rights reserved.
data_76649-ICSD
_database_code_ICSD 76649
_audit_creation_date 2001-07-16
_chemical_name_systematic 'Bismuth selenide bromide'
_chemical_formula_structural 'Bi Se Br'
_chemical_formula_sum 'Bi1 Br1 Se1'
_chemical_name_structure_type PbCl2
_exptl_crystal_density_diffrn 6.94
_publ_section_title

;
Ueber Selenohalogenide des dreiwertigen Antimons und Wismuts und ueber
Antimon(III)-selenid
;
loop_
_citation_id
_citation_journal_full
_citation_year
_citation_journal_volume
_citation_page_first
_citation_page_last
_citation_journal_id_ASTM
primary 'Zeitschrift fuer Anorganische und Allgemeine Chemie (1950) (DE)' 1950
263 280 291 ZAACAB
loop_
_publ_author_name
'Doenges, E.'
_cell_length_a 8.18
_cell_length_b 10.47
_cell_length_c 4.11
_cell_angle_alpha 90.
_cell_angle_beta 90.
_cell_angle_gamma 90.
_cell_volume 352.
_cell_formula_units_Z 4
_symmetry_space_group_name_H-M 'P n a m'
_symmetry_Int_Tables_number 62
loop_
_symmetry_equiv_pos_site_id
_symmetry_equiv_pos_as_xyz
1 'x+1/2, -y+1/2, z'
2 'x, y, -z+1/2'
3 '-x+1/2, y+1/2, z+1/2'
4 '-x, -y, -z'
5 '-x+1/2, y+1/2, -z'
6 '-x, -y, z+1/2'
7 'x+1/2, -y+1/2, -z+1/2'
8 'x, y, z'
loop_
_atom_type_symbol
_atom_type_oxidation_number
Bi3+ 3
Se2- -2
Br1- -1
loop_
_atom_site_label
_atom_site_type_symbol
_atom_site_symmetry_multiplicity
_atom_site_Wyckoff_symbol
_atom_site_fract_x
_atom_site_fract_y
_atom_site_fract_z
_atom_site_B_iso_or_equiv
_atom_site_occupancy
_atom_site_attached_hydrogens
Bi1 Bi3+ 4 c 0.135 0.13 0.25 . 1. 0
Se1 Se2- 4 c 0.8 0.04 0.25 . 1. 0
Br1 Br1- 4 c 0.47 0.82 0.25 . 1. 0
#End of TTdata_76649-ICSD