
#(C) 2017 by FIZ Karlsruhe - Leibniz Institute for Information Infrastructure.  All rights reserved.
data_76648-ICSD
_database_code_ICSD 76648
_audit_creation_date 2001-07-16
_audit_update_record 2008-02-01
_chemical_name_systematic 'Mercury chloride'
_chemical_formula_structural 'Hg Cl2'
_chemical_formula_sum 'Cl2 Hg1'
_chemical_name_structure_type HgCl2
_exptl_crystal_density_diffrn 5.49
_publ_section_title 'The covalent bond length mercury-chlorine'
loop_
_citation_id
_citation_journal_full
_citation_year
_citation_journal_volume
_citation_page_first
_citation_page_last
_citation_journal_id_ASTM
primary 'Arhiv za Kemiju' 1950 22 14 23 AKEMAQ
loop_
_publ_author_name
'Grdenic, D.'
_cell_length_a 12.735(4)
_cell_length_b 5.963(3)
_cell_length_c 4.323(2)
_cell_angle_alpha 90.
_cell_angle_beta 90.
_cell_angle_gamma 90.
_cell_volume 328.28
_cell_formula_units_Z 4
_symmetry_space_group_name_H-M 'P n m a'
_symmetry_Int_Tables_number 62
_refine_ls_R_factor_all 0.14
loop_
_symmetry_equiv_pos_site_id
_symmetry_equiv_pos_as_xyz
1 'x+1/2, y, -z+1/2'
2 'x, -y+1/2, z'
3 '-x+1/2, y+1/2, z+1/2'
4 '-x, -y, -z'
5 '-x+1/2, -y, z+1/2'
6 '-x, y+1/2, -z'
7 'x+1/2, -y+1/2, -z+1/2'
8 'x, y, z'
loop_
_atom_type_symbol
_atom_type_oxidation_number
Hg2+ 2
Cl1- -1
loop_
_atom_site_label
_atom_site_type_symbol
_atom_site_symmetry_multiplicity
_atom_site_Wyckoff_symbol
_atom_site_fract_x
_atom_site_fract_y
_atom_site_fract_z
_atom_site_B_iso_or_equiv
_atom_site_occupancy
_atom_site_attached_hydrogens
Hg1 Hg2+ 4 c 0.126(2) 0.25 0.050(4) 3.5 1. 0
Cl1 Cl1- 4 c 0.255(5) 0.25 0.406(15) 3.5 1. 0
Cl2 Cl1- 4 c 0.496(5) 0.25 0.806(15) 3.5 1. 0
#End of TTdata_76648-ICSD