
#(C) 2017 by FIZ Karlsruhe - Leibniz Institute for Information Infrastructure.  All rights reserved.
data_77281-ICSD
_database_code_ICSD 77281
_audit_creation_date 2003-04-01
_audit_update_record 2006-04-01
_chemical_name_systematic 'Molybdenum germanide (5/3)'
_chemical_formula_structural 'Mo5 Ge3'
_chemical_formula_sum 'Ge3 Mo5'
_chemical_name_structure_type Mo5Si3
_exptl_crystal_density_diffrn 9.63
_publ_section_title 'Verfeinerung der Kristallstruktur von Mo5 Ge3'
loop_
_citation_id
_citation_journal_full
_citation_year
_citation_journal_volume
_citation_page_first
_citation_page_last
_citation_journal_id_ASTM
primary 'Zeitschrift fuer Kristallographie (1979-2010)' 1991 197 131 135 ZEKRDZ
loop_
_publ_author_name
'Dronskowski, R.'
'Simon, A.'
_cell_length_a 9.845(2)
_cell_length_b 9.845
_cell_length_c 4.965(1)
_cell_angle_alpha 90.
_cell_angle_beta 90.
_cell_angle_gamma 90.
_cell_volume 481.23
_cell_formula_units_Z 4
_symmetry_space_group_name_H-M 'I 4/m c m'
_symmetry_Int_Tables_number 140
_refine_ls_R_factor_all 0.033
loop_
_symmetry_equiv_pos_site_id
_symmetry_equiv_pos_as_xyz
1 'y, x, -z+1/2'
2 '-y, -x, -z+1/2'
3 '-y, x, -z'
4 'y, -x, -z'
5 'x, -y, -z+1/2'
6 '-x, y, -z+1/2'
7 'x, y, -z'
8 '-x, -y, -z'
9 '-y, -x, z+1/2'
10 'y, x, z+1/2'
11 'y, -x, z'
12 '-y, x, z'
13 '-x, y, z+1/2'
14 'x, -y, z+1/2'
15 '-x, -y, z'
16 'x, y, z'
17 'y+1/2, x+1/2, -z'
18 '-y+1/2, -x+1/2, -z'
19 '-y+1/2, x+1/2, -z+1/2'
20 'y+1/2, -x+1/2, -z+1/2'
21 'x+1/2, -y+1/2, -z'
22 '-x+1/2, y+1/2, -z'
23 'x+1/2, y+1/2, -z+1/2'
24 '-x+1/2, -y+1/2, -z+1/2'
25 '-y+1/2, -x+1/2, z'
26 'y+1/2, x+1/2, z'
27 'y+1/2, -x+1/2, z+1/2'
28 '-y+1/2, x+1/2, z+1/2'
29 '-x+1/2, y+1/2, z'
30 'x+1/2, -y+1/2, z'
31 '-x+1/2, -y+1/2, z+1/2'
32 'x+1/2, y+1/2, z+1/2'
loop_
_atom_type_symbol
_atom_type_oxidation_number
Mo0+ 0
Ge0+ 0
loop_
_atom_site_label
_atom_site_type_symbol
_atom_site_symmetry_multiplicity
_atom_site_Wyckoff_symbol
_atom_site_fract_x
_atom_site_fract_y
_atom_site_fract_z
_atom_site_B_iso_or_equiv
_atom_site_occupancy
_atom_site_attached_hydrogens
Mo1 Mo0+ 16 k 0.0761(1) 0.2280(1) 0 0.0286(4) 1. 0
Mo2 Mo0+ 4 b 0 0.5 0.25 0.0283(5) 1. 0
Ge1 Ge0+ 8 h 0.1679(1) 0.6679 0 0.0293(5) 1. 0
Ge2 Ge0+ 4 a 0 0 0.25 0.0311(6) 1. 0
loop_
_atom_site_aniso_label
_atom_site_aniso_type_symbol
_atom_site_aniso_U_11
_atom_site_aniso_U_22
_atom_site_aniso_U_33
_atom_site_aniso_U_12
_atom_site_aniso_U_13
_atom_site_aniso_U_23
Mo1 Mo0+ 0.0277(7) 0.0277 0.0304(8) -0.0001(3) 0 0
Mo2 Mo0+ 0.0283(7) 0.0283 0.0285(11) 0 0 0
Ge1 Ge0+ 0.0276(7) 0.0276 0.0326(10) -0.0010(6) 0 0
Ge2 Ge0+ 0.0304(8) 0.0304 0.0326(13) 0 0 0
#End of TTdata_77281-ICSD