
#(C) 2017 by FIZ Karlsruhe - Leibniz Institute for Information Infrastructure.  All rights reserved.
data_77326-ICSD
_database_code_ICSD 77326
_audit_creation_date 2003-04-01
_audit_update_record 2012-02-01
_chemical_name_systematic 'Aluminium oxide hydroxide'
_chemical_formula_structural 'Al O (O H)'
_chemical_formula_sum 'H1 Al1 O2'
_chemical_name_structure_type AlOOH(Diaspore)
_chemical_name_mineral Diaspore
_exptl_crystal_density_diffrn 3.38
_publ_section_title

;
Ueber die Kristallstruktur von alpha - Al O O H (Diaspore). II. Fourieranalyse
;
loop_
_citation_id
_citation_journal_full
_citation_year
_citation_journal_volume
_citation_page_first
_citation_page_last
_citation_journal_id_ASTM
primary

;
Zeitschrift fuer Kristallographie, Kristallgeometrie, Kristallphysik,
Kristallchemie (-144,1977)
; 1942 104 11 17 ZEKGAX
loop_
_publ_author_name
'Hoppe, W.'
_cell_length_a 4.4
_cell_length_b 9.42
_cell_length_c 2.845
_cell_angle_alpha 90.
_cell_angle_beta 90.
_cell_angle_gamma 90.
_cell_volume 117.92
_cell_formula_units_Z 4
_symmetry_space_group_name_H-M 'P b n m'
_symmetry_Int_Tables_number 62
loop_
_symmetry_equiv_pos_site_id
_symmetry_equiv_pos_as_xyz
1 '-x+1/2, y+1/2, z'
2 'x, y, -z+1/2'
3 'x+1/2, -y+1/2, z+1/2'
4 '-x, -y, -z'
5 'x+1/2, -y+1/2, -z'
6 '-x, -y, z+1/2'
7 '-x+1/2, y+1/2, -z+1/2'
8 'x, y, z'
loop_
_atom_type_symbol
_atom_type_oxidation_number
Al3+ 3
O2- -2
H1+ 1
loop_
_atom_site_label
_atom_site_type_symbol
_atom_site_symmetry_multiplicity
_atom_site_Wyckoff_symbol
_atom_site_fract_x
_atom_site_fract_y
_atom_site_fract_z
_atom_site_B_iso_or_equiv
_atom_site_occupancy
_atom_site_attached_hydrogens
Al1 Al3+ 4 c -.048 0.146(1) 0.25 . 1. 0
O1 O2- 4 c 0.287 -.199(2) 0.25 . 1. 0
O2 O2- 4 c -.198 -.056(2) 0.25 . 1. 0
#End of TTdata_77326-ICSD