
#(C) 2017 by FIZ Karlsruhe - Leibniz Institute for Information Infrastructure.  All rights reserved.
data_77353-ICSD
_database_code_ICSD 77353
_audit_creation_date 2003-04-01
_chemical_name_systematic 'Tin rhodium boride (4/6/1)'
_chemical_formula_structural 'Sn4 Rh6 B'
_chemical_formula_sum 'B1 Rh6 Sn4'
_exptl_crystal_density_diffrn 9.76
_publ_section_title
'Die Zinn-Rhodiumboride Sn Rh3 B1-x, Sn4 Rh6 B und Sn5 Rh6 B2'
loop_
_citation_id
_citation_journal_full
_citation_year
_citation_journal_volume
_citation_page_first
_citation_page_last
_citation_journal_id_ASTM
primary 'Zeitschrift fuer Anorganische und Allgemeine Chemie (1950) (DE)' 1996
622 2099 2106 ZAACAB
loop_
_publ_author_name
'Kluenter, W.'
'Jung, W.'
_cell_length_a 5.6001(3)
_cell_length_b 5.6001
_cell_length_c 13.675(1)
_cell_angle_alpha 90.
_cell_angle_beta 90.
_cell_angle_gamma 120.
_cell_volume 371.41
_cell_formula_units_Z 2
_symmetry_space_group_name_H-M 'P 63/m m c'
_symmetry_Int_Tables_number 194
_refine_ls_R_factor_all 0.035
loop_
_symmetry_equiv_pos_site_id
_symmetry_equiv_pos_as_xyz
1 'x, x-y, -z+1/2'
2 '-x+y, y, -z+1/2'
3 '-y, -x, -z+1/2'
4 '-x+y, -x, -z+1/2'
5 '-y, x-y, -z+1/2'
6 'x, y, -z+1/2'
7 '-x, -x+y, z+1/2'
8 'x-y, -y, z+1/2'
9 'y, x, z+1/2'
10 'x-y, x, z+1/2'
11 'y, -x+y, z+1/2'
12 '-x, -y, z+1/2'
13 '-x, -x+y, -z'
14 'x-y, -y, -z'
15 'y, x, -z'
16 'x-y, x, -z'
17 'y, -x+y, -z'
18 '-x, -y, -z'
19 'x, x-y, z'
20 '-x+y, y, z'
21 '-y, -x, z'
22 '-x+y, -x, z'
23 '-y, x-y, z'
24 'x, y, z'
loop_
_atom_type_symbol
_atom_type_oxidation_number
Sn0+ 0
Rh0+ 0
B0+ 0
loop_
_atom_site_label
_atom_site_type_symbol
_atom_site_symmetry_multiplicity
_atom_site_Wyckoff_symbol
_atom_site_fract_x
_atom_site_fract_y
_atom_site_fract_z
_atom_site_B_iso_or_equiv
_atom_site_occupancy
_atom_site_attached_hydrogens
Sn1 Sn0+ 4 f 0.3333 0.6667 0.07753(4) . 1. 0
Sn2 Sn0+ 2 d 0.6667 0.3333 0.25 . 1. 0
Sn3 Sn0+ 2 b 0 0 0.25 . 1. 0
Rh1 Rh0+ 12 k 0.33672(12) 0.16836(6) 0.09366(2) . 1. 0
B1 B0+ 2 a 0 0 0 0.0056(15) 1. 0
loop_
_atom_site_aniso_label
_atom_site_aniso_type_symbol
_atom_site_aniso_U_11
_atom_site_aniso_U_22
_atom_site_aniso_U_33
_atom_site_aniso_U_12
_atom_site_aniso_U_13
_atom_site_aniso_U_23
Sn1 Sn0+ 0.0055(1) 0.0055 0.0072(2) 0.00275 0 0
Sn2 Sn0+ 0.0069(2) 0.0069 0.0041(2) 0.00345 0 0
Sn3 Sn0+ 0.0068(2) 0.0068 0.0043(2) 0.0034 0 0
Rh1 Rh0+ 0.0044(1) 0.0117(1) 0.0068(1) 0.0022 -0.0005(1) -0.00025(5)
#End of TTdata_77353-ICSD