
data_77352-ICSD
_database_code_ICSD 77352
_audit_creation_date 2003-04-01
_audit_update_record 2015-02-01
_chemical_name_systematic 'Tin rhodium boride (5/6/2)'
_chemical_formula_structural 'Sn5 Rh6 B2'
_chemical_formula_sum 'B2 Rh6 Sn5'
_chemical_name_structure_type Rh6Sn5B2
_exptl_crystal_density_diffrn 9.8
_cell_length_a 6.5480(7)
_cell_length_b 6.5480(7)
_cell_length_c 5.5732(9)
_cell_angle_alpha 90.
_cell_angle_beta 90.
_cell_angle_gamma 120.
_cell_volume 206.94
_cell_formula_units_Z 1
_symmetry_space_group_name_H-M 'P -6 2 m'
_symmetry_Int_Tables_number 189
_refine_ls_R_factor_all 0.039
loop_
_symmetry_equiv_pos_site_id
_symmetry_equiv_pos_as_xyz
1 '-x, -x+y, -z'
2 'x-y, -y, -z'
3 'y, x, -z'
4 '-x, -x+y, z'
5 'x-y, -y, z'
6 'y, x, z'
7 '-x+y, -x, -z'
8 '-y, x-y, -z'
9 'x, y, -z'
10 '-x+y, -x, z'
11 '-y, x-y, z'
12 'x, y, z'
loop_
_atom_type_symbol
_atom_type_oxidation_number
Sn0+ 0
Rh0+ 0
B0+ 0
loop_
_atom_site_label
_atom_site_type_symbol
_atom_site_symmetry_multiplicity
_atom_site_Wyckoff_symbol
_atom_site_fract_x
_atom_site_fract_y
_atom_site_fract_z
_atom_site_B_iso_or_equiv
_atom_site_occupancy
_atom_site_attached_hydrogens
Sn1 Sn0+ 2 d 0.3333 0.6667 0.5 . 1. 0
Sn2 Sn0+ 3 f 0 0.5982(2) 0 . 1. 0
Rh1 Rh0+ 6 i 0.2551(1) 0 0.2542(2) . 1. 0
B1 B0+ 1 a 0 0 0 0.0111(58) 1. 0
B2 B0+ 1 b 0 0 0.5 0.0140(65) 1. 0
loop_
_atom_site_aniso_label
_atom_site_aniso_type_symbol
_atom_site_aniso_U_11
_atom_site_aniso_U_22
_atom_site_aniso_U_33
_atom_site_aniso_U_12
_atom_site_aniso_U_13
_atom_site_aniso_U_23
Sn1 Sn0+ 0.0064(3) 0.0064 0.0071(5) 0.0032 0 0
Sn2 Sn0+ 0.0067(4) 0.0055(3) 0.0072(4) 0.0033(2) 0 0
Rh1 Rh0+ 0.0070(2) 0.0072(3) 0.0050(2) 0.0036(1) -0.0002(2) 0
