
data_77889-ICSD
_database_code_ICSD 77889
_audit_creation_date 2003-04-01
_audit_update_record 2011-08-01
_chemical_name_systematic 'Palladium antimonide (2/1)'
_chemical_formula_structural 'Pd2 Sb'
_chemical_formula_sum 'Pd2 Sb1'
_chemical_name_structure_type Pd2As
_exptl_crystal_density_diffrn 10.99
_cell_length_a 3.354
_cell_length_b 17.444
_cell_length_c 6.909
_cell_angle_alpha 90.
_cell_angle_beta 90.
_cell_angle_gamma 90.
_cell_volume 404.23
_cell_formula_units_Z 8
_symmetry_space_group_name_H-M 'C m c 21'
_symmetry_Int_Tables_number 36
loop_
_symmetry_equiv_pos_site_id
_symmetry_equiv_pos_as_xyz
1 'x, -y, z+1/2'
2 '-x, -y, z+1/2'
3 '-x, y, z'
4 'x, y, z'
5 'x+1/2, -y+1/2, z+1/2'
6 '-x+1/2, -y+1/2, z+1/2'
7 '-x+1/2, y+1/2, z'
8 'x+1/2, y+1/2, z'
loop_
_atom_type_symbol
_atom_type_oxidation_number
Pd0+ 0
Sb0+ 0
loop_
_atom_site_label
_atom_site_type_symbol
_atom_site_symmetry_multiplicity
_atom_site_Wyckoff_symbol
_atom_site_fract_x
_atom_site_fract_y
_atom_site_fract_z
_atom_site_B_iso_or_equiv
_atom_site_occupancy
_atom_site_attached_hydrogens
Pd1 Pd0+ 4 a 0 0.9644 0 . 1. 0
Pd2 Pd0+ 4 a 0 0.173 0.107 . 1. 0
Pd3 Pd0+ 4 a 0 0.3276 0.958 . 1. 0
Pd4 Pd0+ 4 a 0 0.5892 0.8353 . 1. 0
Sb1 Sb0+ 4 a 0 0.5567 0.1884 . 1. 0
Sb2 Sb0+ 4 a 0 0.2073 0.7256 . 1. 0
