
#(C) 2017 by FIZ Karlsruhe - Leibniz Institute for Information Infrastructure.  All rights reserved.
data_78177-ICSD
_database_code_ICSD 78177
_audit_creation_date 1995-10-17
_chemical_name_systematic 'Barium yttrium silver selenide'
_chemical_formula_structural 'Ba Y Ag Se3'
_chemical_formula_sum 'Ag1 Ba1 Se3 Y1'
_chemical_name_structure_type KCuZrS3
_exptl_crystal_density_diffrn 6.
_cell_measurement_temperature 115.
_publ_section_title

;
New quaternary chalcogenides BaLnMQ3 (Ln=rare earth or Sc; M=Cu,Ag; Q=S,Se).
II. Structure and property variation vs rare-earth element
;
loop_
_citation_id
_citation_journal_full
_citation_year
_citation_journal_volume
_citation_page_first
_citation_page_last
_citation_journal_id_ASTM
primary 'Journal of Solid State Chemistry' 1994 110 337 344 JSSCBI
loop_
_publ_author_name
'Wu, P.'
'Christuk, A.E.'
'Ibers, J.A.'
_cell_length_a 4.239(1)
_cell_length_b 14.030(2)
_cell_length_c 10.636(2)
_cell_angle_alpha 90.
_cell_angle_beta 90.
_cell_angle_gamma 90.
_cell_volume 632.56
_cell_formula_units_Z 4
_symmetry_space_group_name_H-M 'C m c m'
_symmetry_Int_Tables_number 63
_refine_ls_R_factor_all 0.023
loop_
_symmetry_equiv_pos_site_id
_symmetry_equiv_pos_as_xyz
1 '-x, y, -z+1/2'
2 '-x, -y, z+1/2'
3 '-x, y, z'
4 '-x, -y, -z'
5 'x, -y, z+1/2'
6 'x, y, -z+1/2'
7 'x, -y, -z'
8 'x, y, z'
9 '-x+1/2, y+1/2, -z+1/2'
10 '-x+1/2, -y+1/2, z+1/2'
11 '-x+1/2, y+1/2, z'
12 '-x+1/2, -y+1/2, -z'
13 'x+1/2, -y+1/2, z+1/2'
14 'x+1/2, y+1/2, -z+1/2'
15 'x+1/2, -y+1/2, -z'
16 'x+1/2, y+1/2, z'
loop_
_atom_type_symbol
_atom_type_oxidation_number
Ba2+ 2
Y3+ 3
Ag1+ 1
Se2- -2
loop_
_atom_site_label
_atom_site_type_symbol
_atom_site_symmetry_multiplicity
_atom_site_Wyckoff_symbol
_atom_site_fract_x
_atom_site_fract_y
_atom_site_fract_z
_atom_site_B_iso_or_equiv
_atom_site_occupancy
_atom_site_attached_hydrogens
Ba1 Ba2+ 4 c 0 0.24967(3) 0.25 0.0062(2) 1. 0
Y1 Y3+ 4 a 0 0 0 0.0051(3) 1. 0
Ag1 Ag1+ 4 c 0 0.53155(4) 0.25 0.0068(3) 1. 0
Se1 Se2- 8 f 0 0.63717(4) 0.04913(5) 0.0055(2) 1. 0
Se2 Se2- 4 c 0 0.0787(5) 0.75 0.0052(3) 1. 0
#End of TTdata_78177-ICSD