
#(C) 2017 by FIZ Karlsruhe - Leibniz Institute for Information Infrastructure.  All rights reserved.
data_78760-ICSD
_database_code_ICSD 78760
_audit_creation_date 1997-05-13
_audit_update_record 2004-10-01
_chemical_name_systematic 'Dimanganese tetrathiostannate'
_chemical_formula_structural 'Mn2 (Sn S4)'
_chemical_formula_sum 'Mn2 S4 Sn1'
_chemical_name_structure_type Mn2SnS4
_exptl_crystal_density_diffrn 4.16
_cell_measurement_temperature 295.
_publ_section_title
'Strukturverfeinerung und magnetische Messungen an Mn2 Sn S4'
loop_
_citation_id
_citation_journal_full
_citation_year
_citation_journal_volume
_citation_page_first
_citation_page_last
_citation_journal_id_ASTM
primary 'Zeitschrift fuer Anorganische und Allgemeine Chemie (1950) (DE)' 1995
621 1600 1604 ZAACAB
loop_
_publ_author_name
'Partik, M.'
'Stingl, T.'
'Lutz, H.D.'
'Sabrowsky, H.'
'Vogt, P.'
_cell_length_a 7.407(1)
_cell_length_b 10.475(1)
_cell_length_c 3.6672
_cell_angle_alpha 90.
_cell_angle_beta 90.
_cell_angle_gamma 90.
_cell_volume 284.53
_cell_formula_units_Z 2
_symmetry_space_group_name_H-M 'C m m m'
_symmetry_Int_Tables_number 65
_refine_ls_R_factor_all 0.014
loop_
_symmetry_equiv_pos_site_id
_symmetry_equiv_pos_as_xyz
1 'x, -y, z'
2 '-x, y, z'
3 'x, y, -z'
4 '-x, -y, -z'
5 '-x, y, -z'
6 'x, -y, -z'
7 '-x, -y, z'
8 'x, y, z'
9 'x+1/2, -y+1/2, z'
10 '-x+1/2, y+1/2, z'
11 'x+1/2, y+1/2, -z'
12 '-x+1/2, -y+1/2, -z'
13 '-x+1/2, y+1/2, -z'
14 'x+1/2, -y+1/2, -z'
15 '-x+1/2, -y+1/2, z'
16 'x+1/2, y+1/2, z'
loop_
_atom_type_symbol
_atom_type_oxidation_number
Sn4+ 4
Mn2+ 2
S2- -2
loop_
_atom_site_label
_atom_site_type_symbol
_atom_site_symmetry_multiplicity
_atom_site_Wyckoff_symbol
_atom_site_fract_x
_atom_site_fract_y
_atom_site_fract_z
_atom_site_B_iso_or_equiv
_atom_site_occupancy
_atom_site_attached_hydrogens
Sn1 Sn4+ 2 a 0 0 0 . 1. 0
Mn1 Mn2+ 4 f 0.25 0.25 0.5 . 1. 0
S1 S2- 4 h 0.24127(7) 0 0.5 . 1. 0
S2 S2- 4 i 0 0.24261(5) 0 . 1. 0
loop_
_atom_site_aniso_label
_atom_site_aniso_type_symbol
_atom_site_aniso_U_11
_atom_site_aniso_U_22
_atom_site_aniso_U_33
_atom_site_aniso_U_12
_atom_site_aniso_U_13
_atom_site_aniso_U_23
Sn1 Sn4+ 0.0101(1) 0.0080(1) 0.0070(1) 0 0 0
Mn1 Mn2+ 0.0124(2) 0.0136(2) 0.0114(2) -.0038(1) 0 0
S1 S2- 0.0084(2) 0.0092(2) 0.0092(2) 0 0 0
S2 S2- 0.0087(2) 0.0088(2) 0.0087(2) 0 0 0
#End of TTdata_78760-ICSD