
#(C) 2017 by FIZ Karlsruhe - Leibniz Institute for Information Infrastructure.  All rights reserved.
data_78787-ICSD
_database_code_ICSD 78787
_audit_creation_date 1997-11-10
_audit_update_record 2010-08-01
_chemical_name_systematic 'Thallium platinum telluride (2/4/6)'
_chemical_formula_structural 'Tl2 Pt4 Te6'
_chemical_formula_sum 'Pt4 Te6 Tl2'
_chemical_name_structure_type Tl2Pt4Te6
_exptl_crystal_density_diffrn 10.57
_publ_section_title

;
Ternaere Thalliumplatin- und Thalliumpalladiumchalkogenide Tl2 M4 X6.
Synthesen, Kristallstruktur und Bindungsverhaeltnisse
;
loop_
_citation_id
_citation_journal_full
_citation_year
_citation_journal_volume
_citation_page_first
_citation_page_last
_citation_journal_id_ASTM
primary 'Zeitschrift fuer Anorganische und Allgemeine Chemie (1950) (DE)' 1995
621 2083 2088 ZAACAB
loop_
_publ_author_name
'Bronger, W.'
'Bonsmann, B.'
_cell_length_a 7.9215(5)
_cell_length_b 7.9215(5)
_cell_length_c 5.6502(5)
_cell_angle_alpha 90.
_cell_angle_beta 90.
_cell_angle_gamma 120.
_cell_volume 307.05
_cell_formula_units_Z 1
_symmetry_space_group_name_H-M 'P -3 m 1'
_symmetry_Int_Tables_number 164
_refine_ls_R_factor_all 0.112
loop_
_symmetry_equiv_pos_site_id
_symmetry_equiv_pos_as_xyz
1 'x-y, -y, -z'
2 '-x, -x+y, -z'
3 'y, x, -z'
4 'x-y, x, -z'
5 'y, -x+y, -z'
6 '-x, -y, -z'
7 '-x+y, y, z'
8 'x, x-y, z'
9 '-y, -x, z'
10 '-x+y, -x, z'
11 '-y, x-y, z'
12 'x, y, z'
loop_
_atom_type_symbol
_atom_type_oxidation_number
Tl1+ 1
Pt4+ 4
Pt2+ 2
Te2- -2
loop_
_atom_site_label
_atom_site_type_symbol
_atom_site_symmetry_multiplicity
_atom_site_Wyckoff_symbol
_atom_site_fract_x
_atom_site_fract_y
_atom_site_fract_z
_atom_site_B_iso_or_equiv
_atom_site_occupancy
_atom_site_attached_hydrogens
Tl1 Tl1+ 2 d 0.3333 0.6667 0.309(3) 2.8(6) 1. 0
Pt1 Pt4+ 1 a 0 0 0 1.4(9) 1. 0
Pt2 Pt2+ 3 e 0.5 0 0 2.0(9) 1. 0
Te1 Te2- 6 i 0.1661(8) -.1661(8) 0.7581(11) 0.7(2) 1. 0
#End of TTdata_78787-ICSD