
#(C) 2017 by FIZ Karlsruhe - Leibniz Institute for Information Infrastructure.  All rights reserved.
data_78846-ICSD
_database_code_ICSD 78846
_audit_creation_date 1997-11-10
_chemical_name_systematic 'Yttrium tetraoxodipalladate'
_chemical_formula_structural 'Y (Pd2 O4)'
_chemical_formula_sum 'O4 Pd2 Y1'
_chemical_name_structure_type LaPd2O4
_exptl_crystal_density_diffrn 7.39
_publ_section_title

;
Untersuchungen zu Struktur und physikalische Eigenschaften von Oxiden der La
Pd2 O4-Familie
;
loop_
_citation_id
_citation_journal_full
_citation_year
_citation_journal_volume
_citation_page_first
_citation_page_last
_citation_journal_id_ASTM
primary 'Zeitschrift fuer Anorganische und Allgemeine Chemie (1950) (DE)' 1996
622 1027 1034 ZAACAB
loop_
_publ_author_name
'Kraemer, G.'
'Haegele, E.'
'Wagner, N.'
'Jansen, M.'
_cell_length_a 5.73784(6)
_cell_length_b 5.73784(6)
_cell_length_c 9.9859(2)
_cell_angle_alpha 90.
_cell_angle_beta 90.
_cell_angle_gamma 90.
_cell_volume 328.76
_cell_formula_units_Z 4
_symmetry_space_group_name_H-M 'I 41/a Z'
_symmetry_Int_Tables_number 88
_refine_ls_R_factor_all 0.0685
loop_
_symmetry_equiv_pos_site_id
_symmetry_equiv_pos_as_xyz
1 '-y+3/4, x+3/4, -z+3/4'
2 'y+1/4, -x+3/4, -z+3/4'
3 'x, y+1/2, -z'
4 '-x, -y, -z'
5 'y+1/4, -x+1/4, z+1/4'
6 '-y+3/4, x+1/4, z+1/4'
7 '-x, -y+1/2, z'
8 'x, y, z'
9 '-y+1/4, x+1/4, -z+1/4'
10 'y+3/4, -x+1/4, -z+1/4'
11 'x+1/2, y, -z+1/2'
12 '-x+1/2, -y+1/2, -z+1/2'
13 'y+3/4, -x+3/4, z+3/4'
14 '-y+1/4, x+3/4, z+3/4'
15 '-x+1/2, -y, z+1/2'
16 'x+1/2, y+1/2, z+1/2'
loop_
_atom_type_symbol
_atom_type_oxidation_number
Y3+ 3
Pd2+ 2.5
O2- -2
loop_
_atom_site_label
_atom_site_type_symbol
_atom_site_symmetry_multiplicity
_atom_site_Wyckoff_symbol
_atom_site_fract_x
_atom_site_fract_y
_atom_site_fract_z
_atom_site_B_iso_or_equiv
_atom_site_occupancy
_atom_site_attached_hydrogens
Y1 Y3+ 4 a 0 0.25 0.125 0.0047(2) 1. 0
Pd1 Pd2+ 8 d 0 0 0.5 0.0071(2) 1. 0
O1 O2- 16 f 0.670(2) 0.939(2) 0.8164(15) 0.011(21) 1. 0
#End of TTdata_78846-ICSD