
#(C) 2017 by FIZ Karlsruhe - Leibniz Institute for Information Infrastructure.  All rights reserved.
data_79111-ICSD
_database_code_ICSD 79111
_audit_creation_date 1996-04-22
_audit_update_record 2012-02-01
_chemical_name_systematic 'Potassium gold germanium (4/7/2)'
_chemical_formula_structural 'K4 Au7 Ge2'
_chemical_formula_sum 'Au7 Ge2 K4'
_chemical_name_structure_type Au7K4Ge2
_exptl_crystal_density_diffrn 8.43
_publ_section_title
'K4 Au7 Ge2: eine Gerueststruktur mit Au7-Doppeltetraedern und Ge2-Hanteln'
loop_
_citation_id
_citation_journal_full
_citation_year
_citation_journal_volume
_citation_page_first
_citation_page_last
_citation_journal_id_ASTM
primary 'Zeitschrift fuer Anorganische und Allgemeine Chemie (1950) (DE)' 1995
621 975 978 ZAACAB
loop_
_publ_author_name
'Zachwieja, U.'
_cell_length_a 6.411(3)
_cell_length_b 6.411(3)
_cell_length_c 27.912(20)
_cell_angle_alpha 90.
_cell_angle_beta 90.
_cell_angle_gamma 120.
_cell_volume 993.51
_cell_formula_units_Z 3
_symmetry_space_group_name_H-M 'R -3 m H'
_symmetry_Int_Tables_number 166
_refine_ls_R_factor_all 0.046
loop_
_symmetry_equiv_pos_site_id
_symmetry_equiv_pos_as_xyz
1 'x-y, -y, -z'
2 '-x, -x+y, -z'
3 'y, x, -z'
4 'x-y, x, -z'
5 'y, -x+y, -z'
6 '-x, -y, -z'
7 '-x+y, y, z'
8 'x, x-y, z'
9 '-y, -x, z'
10 '-x+y, -x, z'
11 '-y, x-y, z'
12 'x, y, z'
13 'x-y+2/3, -y+1/3, -z+1/3'
14 '-x+2/3, -x+y+1/3, -z+1/3'
15 'y+2/3, x+1/3, -z+1/3'
16 'x-y+2/3, x+1/3, -z+1/3'
17 'y+2/3, -x+y+1/3, -z+1/3'
18 '-x+2/3, -y+1/3, -z+1/3'
19 '-x+y+2/3, y+1/3, z+1/3'
20 'x+2/3, x-y+1/3, z+1/3'
21 '-y+2/3, -x+1/3, z+1/3'
22 '-x+y+2/3, -x+1/3, z+1/3'
23 '-y+2/3, x-y+1/3, z+1/3'
24 'x+2/3, y+1/3, z+1/3'
25 'x-y+1/3, -y+2/3, -z+2/3'
26 '-x+1/3, -x+y+2/3, -z+2/3'
27 'y+1/3, x+2/3, -z+2/3'
28 'x-y+1/3, x+2/3, -z+2/3'
29 'y+1/3, -x+y+2/3, -z+2/3'
30 '-x+1/3, -y+2/3, -z+2/3'
31 '-x+y+1/3, y+2/3, z+2/3'
32 'x+1/3, x-y+2/3, z+2/3'
33 '-y+1/3, -x+2/3, z+2/3'
34 '-x+y+1/3, -x+2/3, z+2/3'
35 '-y+1/3, x-y+2/3, z+2/3'
36 'x+1/3, y+2/3, z+2/3'
loop_
_atom_type_symbol
_atom_type_oxidation_number
Au0+ -0.571
Au0+ -0.572
Ge0+ 0
K1+ 1
loop_
_atom_site_label
_atom_site_type_symbol
_atom_site_symmetry_multiplicity
_atom_site_Wyckoff_symbol
_atom_site_fract_x
_atom_site_fract_y
_atom_site_fract_z
_atom_site_B_iso_or_equiv
_atom_site_occupancy
_atom_site_attached_hydrogens
Au1 Au0+ 18 h 0.5224(1) 0.4776(1) 0.25423(4) . 1. 0
Au2 Au0+ 3 a 0 0 0 . 1. 0
Ge1 Ge0+ 6 c 0 0 0.4551(2) . 1. 0
K1 K1+ 6 c 0 0 0.1890(5) . 1. 0
K2 K1+ 6 c 0 0 0.3144(6) . 1. 0
loop_
_atom_site_aniso_label
_atom_site_aniso_type_symbol
_atom_site_aniso_U_11
_atom_site_aniso_U_22
_atom_site_aniso_U_33
_atom_site_aniso_U_12
_atom_site_aniso_U_13
_atom_site_aniso_U_23
Au1 Au0+ 0.0233(2) 0.0233(2) 0.0216(4) 0.0149(3) -.0014(3) 0.0014(3)
Au2 Au0+ 0.026(1) 0.026(1) 0.014(1) 0.013(1) 0 0
Ge1 Ge0+ 0.016(2) 0.016(2) 0.020(3) 0.008(1) 0 0
K1 K1+ 0.029(5) 0.029(5) 0.022(6) 0.014(3) 0 0
K2 K1+ 0.028(5) 0.028(5) 0.034(7) 0.014(3) 0 0
#End of TTdata_79111-ICSD