
#(C) 2017 by FIZ Karlsruhe - Leibniz Institute for Information Infrastructure.  All rights reserved.
data_79340-ICSD
_database_code_ICSD 79340
_audit_creation_date 1996-10-14
_audit_update_record 2010-08-01
_chemical_name_systematic 'Lanthanum dipalladate'
_chemical_formula_structural 'La (Pd2 O4)'
_chemical_formula_sum 'La1 O4 Pd2'
_chemical_name_structure_type LaPd2O4
_exptl_crystal_density_diffrn 7.67
_publ_section_title 'La Pd2 O4, a novel mixed valent oxopalladate'
loop_
_citation_id
_citation_journal_full
_citation_year
_citation_journal_volume
_citation_page_first
_citation_page_last
_citation_journal_id_ASTM
primary 'Journal of Solid State Chemistry' 1995 114 206 210 JSSCBI
loop_
_publ_author_name
'Kraemer, G.'
'Jansen, M.'
_cell_length_a 5.9140(5)
_cell_length_b 5.9140(5)
_cell_length_c 10.289(1)
_cell_angle_alpha 90.
_cell_angle_beta 90.
_cell_angle_gamma 90.
_cell_volume 359.86
_cell_formula_units_Z 4
_symmetry_space_group_name_H-M 'I 41/a S'
_symmetry_Int_Tables_number 88
_refine_ls_R_factor_all 0.025
loop_
_symmetry_equiv_pos_site_id
_symmetry_equiv_pos_as_xyz
1 'y, -x+1/2, z+1/4'
2 '-y, x+1/2, z+1/4'
3 'y, -x, -z'
4 '-y, x, -z'
5 '-x, -y+1/2, -z+1/4'
6 'x, y+1/2, -z+1/4'
7 '-x, -y, z'
8 'x, y, z'
9 'y+1/2, -x, z+3/4'
10 '-y+1/2, x, z+3/4'
11 'y+1/2, -x+1/2, -z+1/2'
12 '-y+1/2, x+1/2, -z+1/2'
13 '-x+1/2, -y, -z+3/4'
14 'x+1/2, y, -z+3/4'
15 '-x+1/2, -y+1/2, z+1/2'
16 'x+1/2, y+1/2, z+1/2'
loop_
_atom_type_symbol
_atom_type_oxidation_number
La3+ 3
Pd2+ 2.5
O2- -2
loop_
_atom_site_label
_atom_site_type_symbol
_atom_site_symmetry_multiplicity
_atom_site_Wyckoff_symbol
_atom_site_fract_x
_atom_site_fract_y
_atom_site_fract_z
_atom_site_B_iso_or_equiv
_atom_site_occupancy
_atom_site_attached_hydrogens
La1 La3+ 4 a 0 0 0 . 1. 0
Pd1 Pd2+ 8 d 0 0.25 0.625 . 1. 0
O1 O2- 16 f 0.2050(6) 0.3535(6) 0.0495(3) . 1. 0
loop_
_atom_site_aniso_label
_atom_site_aniso_type_symbol
_atom_site_aniso_U_11
_atom_site_aniso_U_22
_atom_site_aniso_U_33
_atom_site_aniso_U_12
_atom_site_aniso_U_13
_atom_site_aniso_U_23
La1 La3+ 0.007(1) 0.007(1) 0.004(1) 0 0 0
Pd1 Pd2+ 0.006(1) 0.009(1) 0.003(1) 0.000(1) 0.000(1) -.001(1)
O1 O2- 0.007(1) 0.010(2) 0.003(1) -.001(1) 0.000(1) 0.000(1)
#End of TTdata_79340-ICSD