
data_79586-ICSD
_database_code_ICSD 79586
_audit_creation_date 1996-10-14
_chemical_name_systematic 'Sodium arsenide'
_chemical_formula_structural 'Na3 As'
_chemical_formula_sum 'As1 Na3'
_chemical_name_structure_type LaF3(P63mc)
_exptl_crystal_density_diffrn 2.38
_cell_length_a 8.7838(8)
_cell_length_b 8.7838(8)
_cell_length_c 8.9990(12)
_cell_angle_alpha 90.
_cell_angle_beta 90.
_cell_angle_gamma 120.
_cell_volume 601.3
_cell_formula_units_Z 6
_symmetry_space_group_name_H-M 'P 63 c m'
_symmetry_Int_Tables_number 185
_refine_ls_R_factor_all 0.027
loop_
_symmetry_equiv_pos_site_id
_symmetry_equiv_pos_as_xyz
1 'x, x-y, z+1/2'
2 '-x+y, y, z+1/2'
3 '-y, -x, z+1/2'
4 'x-y, x, z+1/2'
5 'y, -x+y, z+1/2'
6 '-x, -y, z+1/2'
7 '-x, -x+y, z'
8 'x-y, -y, z'
9 'y, x, z'
10 '-x+y, -x, z'
11 '-y, x-y, z'
12 'x, y, z'
loop_
_atom_type_symbol
_atom_type_oxidation_number
As3- -3
Na1+ 1
loop_
_atom_site_label
_atom_site_type_symbol
_atom_site_symmetry_multiplicity
_atom_site_Wyckoff_symbol
_atom_site_fract_x
_atom_site_fract_y
_atom_site_fract_z
_atom_site_B_iso_or_equiv
_atom_site_occupancy
_atom_site_attached_hydrogens
As1 As3- 6 c 0.3321(2) 0.3321(2) 0.75 0.0148(7) 1. 0
Na1 Na1+ 6 c 0.3153(9) 0.3153(9) 0.0863(10) 0.0596(47) 1. 0
Na2 Na1+ 6 c 0.3518(6) 0.3518(6) 0.4231(7) 0.0345(35) 1. 0
Na3 Na1+ 4 b 0.3333 0.6667 0.2311(7) 0.0262(21) 1. 0
Na4 Na1+ 2 a 0 0 0.2684(15) 0.0929(76) 1. 0
