
#(C) 2017 by FIZ Karlsruhe - Leibniz Institute for Information Infrastructure.  All rights reserved.
data_79623-ICSD
_database_code_ICSD 79623
_audit_creation_date 1996-10-14
_chemical_name_systematic 'Trimagnesium boron nitride - L'
_chemical_formula_structural 'Mg3 B N3'
_chemical_formula_sum 'B1 Mg3 N3'
_chemical_name_structure_type Mg3-xBN3
_exptl_crystal_density_diffrn 2.39
_cell_measurement_temperature 298.
_publ_section_title

;
Determination of Mg3 B N3 structure from powder diffraction data by entropy
maximization
;
loop_
_citation_id
_citation_journal_full
_citation_year
_citation_journal_volume
_citation_page_first
_citation_page_last
_citation_journal_id_ASTM
primary

;
Research Laboratory on Engineering Materials, Tokyo Institute of Technology:
Report
; 1994 19 29 40 RRLTDF
loop_
_publ_author_name
'Sudo, N.'
'Hashizume, H.'
'Carvalho, C.A.M.'
_cell_length_a 3.54453(4)
_cell_length_b 3.54453(4)
_cell_length_c 16.03529(30)
_cell_angle_alpha 90.
_cell_angle_beta 90.
_cell_angle_gamma 120.
_cell_volume 174.47
_cell_formula_units_Z 2
_symmetry_space_group_name_H-M 'P 63/m m c'
_symmetry_Int_Tables_number 194
loop_
_symmetry_equiv_pos_site_id
_symmetry_equiv_pos_as_xyz
1 'x, x-y, -z+1/2'
2 '-x+y, y, -z+1/2'
3 '-y, -x, -z+1/2'
4 '-x+y, -x, -z+1/2'
5 '-y, x-y, -z+1/2'
6 'x, y, -z+1/2'
7 '-x, -x+y, z+1/2'
8 'x-y, -y, z+1/2'
9 'y, x, z+1/2'
10 'x-y, x, z+1/2'
11 'y, -x+y, z+1/2'
12 '-x, -y, z+1/2'
13 '-x, -x+y, -z'
14 'x-y, -y, -z'
15 'y, x, -z'
16 'x-y, x, -z'
17 'y, -x+y, -z'
18 '-x, -y, -z'
19 'x, x-y, z'
20 '-x+y, y, z'
21 '-y, -x, z'
22 '-x+y, -x, z'
23 '-y, x-y, z'
24 'x, y, z'
loop_
_atom_type_symbol
_atom_type_oxidation_number
Mg2+ 2
N3- -3
B3+ 3
loop_
_atom_site_label
_atom_site_type_symbol
_atom_site_symmetry_multiplicity
_atom_site_Wyckoff_symbol
_atom_site_fract_x
_atom_site_fract_y
_atom_site_fract_z
_atom_site_B_iso_or_equiv
_atom_site_occupancy
_atom_site_attached_hydrogens
Mg1 Mg2+ 2 b 0 0 0.25 0.892(2) 1. 0
Mg2 Mg2+ 4 f 0.3333 0.6667 0.1231(4) 0.726(9) 1. 0
N1 N3- 2 c 0.3333 0.6667 0.25 0.671(1) 1. 0
N2 N3- 4 e 0 0 0.0834(8) 0.821(1) 1. 0
B1 B3+ 2 a 0 0 0 2.123(9) 1. 0
#End of TTdata_79623-ICSD