
data_79634-ICSD
_database_code_ICSD 79634
_audit_creation_date 1996-10-14
_audit_update_record 2006-04-01
_chemical_name_systematic 'Silicon oxide'
_chemical_formula_structural 'Si O2'
_chemical_formula_sum 'O2 Si1'
_chemical_name_structure_type Quartz,low
_chemical_name_mineral 'Quartz low'
_exptl_crystal_density_diffrn 2.64
_cell_length_a 4.921(1)
_cell_length_b 4.921(1)
_cell_length_c 5.4163(8)
_cell_angle_alpha 90.
_cell_angle_beta 90.
_cell_angle_gamma 120.
_cell_volume 113.59
_cell_formula_units_Z 3
_symmetry_space_group_name_H-M 'P 31 2 1'
_symmetry_Int_Tables_number 152
_refine_ls_R_factor_all 0.056
loop_
_symmetry_equiv_pos_site_id
_symmetry_equiv_pos_as_xyz
1 'x-y, -y, -z+2/3'
2 '-x, -x+y, -z+1/3'
3 'y, x, -z'
4 '-x+y, -x, z+2/3'
5 '-y, x-y, z+1/3'
6 'x, y, z'
loop_
_atom_type_symbol
_atom_type_oxidation_number
Si4+ 4
O2- -2
loop_
_atom_site_label
_atom_site_type_symbol
_atom_site_symmetry_multiplicity
_atom_site_Wyckoff_symbol
_atom_site_fract_x
_atom_site_fract_y
_atom_site_fract_z
_atom_site_B_iso_or_equiv
_atom_site_occupancy
_atom_site_attached_hydrogens
Si1 Si4+ 3 a 0.4698(2) 0 0.3333 . 1. 0
O1 O2- 6 c 0.4151(5) 0.2675(4) 0.2139(1) . 1. 0
loop_
_atom_site_aniso_label
_atom_site_aniso_type_symbol
_atom_site_aniso_U_11
_atom_site_aniso_U_22
_atom_site_aniso_U_33
_atom_site_aniso_U_12
_atom_site_aniso_U_13
_atom_site_aniso_U_23
Si1 Si4+ 0.0049(3) 0.0041(4) 0.0046(2) 0.0021(2) 0.0001(1) 0.0002(2)
O1 O2- 0.014(1) 0.0102(8) 0.0101(4) 0.0091(8) 0.0029(5) 0.0036(4)
