
data_79679-ICSD
_database_code_ICSD 79679
_audit_creation_date 1996-10-14
_audit_update_record 2012-02-01
_chemical_name_systematic 'Dicopper mercury tetraiodide - beta'
_chemical_formula_structural 'Cu2 Hg I4'
_chemical_formula_sum 'Cu2 Hg1 I4'
_chemical_name_structure_type Cu2HgI4
_exptl_crystal_density_diffrn 6.12
_cell_length_a 6.086(1)
_cell_length_b 6.086(1)
_cell_length_c 12.228(3)
_cell_angle_alpha 90.
_cell_angle_beta 90.
_cell_angle_gamma 90.
_cell_volume 452.92
_cell_formula_units_Z 2
_symmetry_space_group_name_H-M 'I -4 2 m'
_symmetry_Int_Tables_number 121
_refine_ls_R_factor_all 0.045
loop_
_symmetry_equiv_pos_site_id
_symmetry_equiv_pos_as_xyz
1 '-y, -x, z'
2 'y, x, z'
3 'y, -x, -z'
4 '-y, x, -z'
5 'x, -y, -z'
6 '-x, y, -z'
7 '-x, -y, z'
8 'x, y, z'
9 '-y+1/2, -x+1/2, z+1/2'
10 'y+1/2, x+1/2, z+1/2'
11 'y+1/2, -x+1/2, -z+1/2'
12 '-y+1/2, x+1/2, -z+1/2'
13 'x+1/2, -y+1/2, -z+1/2'
14 '-x+1/2, y+1/2, -z+1/2'
15 '-x+1/2, -y+1/2, z+1/2'
16 'x+1/2, y+1/2, z+1/2'
loop_
_atom_type_symbol
_atom_type_oxidation_number
Cu1+ 1
Hg2+ 2
I1- -1
loop_
_atom_site_label
_atom_site_type_symbol
_atom_site_symmetry_multiplicity
_atom_site_Wyckoff_symbol
_atom_site_fract_x
_atom_site_fract_y
_atom_site_fract_z
_atom_site_B_iso_or_equiv
_atom_site_occupancy
_atom_site_attached_hydrogens
Cu1 Cu1+ 4 d 0 0.5 0.25 . 1. 0
Hg1 Hg2+ 2 a 0 0 0 . 1. 0
I1 I1- 8 i 0.2675(2) 0.2675(2) 0.1284(2) . 1. 0
loop_
_atom_site_aniso_label
_atom_site_aniso_type_symbol
_atom_site_aniso_U_11
_atom_site_aniso_U_22
_atom_site_aniso_U_33
_atom_site_aniso_U_12
_atom_site_aniso_U_13
_atom_site_aniso_U_23
Cu1 Cu1+ 0.0333(20) 0.0333(20) 0.0278(33) 0 0 0
Hg1 Hg2+ 0.0373(12) 0.0373(12) 0.0390(16) 0 0 0
I1 I1- 0.0175(5) 0.0175(5) 0.0239(7) 0.0032(6) -.0027(5) -.0027(5)
