
#(C) 2017 by FIZ Karlsruhe - Leibniz Institute for Information Infrastructure.  All rights reserved.
data_79930-ICSD
_database_code_ICSD 79930
_audit_creation_date 1996-10-14
_chemical_name_systematic 'Barium dithioperthiodipalladate'
_chemical_formula_structural 'Ba (Pd2 S2 (S2))'
_chemical_formula_sum 'Ba1 Pd2 S4'
_exptl_crystal_density_diffrn 5.17
_publ_section_title

;
Synthesis and crystal structure of Ba Pd2 S4 - a sulphide-disulphide compound,
Ba Pd2 S2 (S2)
;
loop_
_citation_id
_citation_journal_full
_citation_year
_citation_journal_volume
_citation_page_first
_citation_page_last
_citation_journal_id_ASTM
primary 'Journal of Alloys and Compounds' 1995 224 190 193 JALCEU
loop_
_publ_author_name
'Huster, J.'
'Bronger, W.'
_cell_length_a 7.252(1)
_cell_length_b 6.764(1)
_cell_length_c 6.687(1)
_cell_angle_alpha 90.
_cell_angle_beta 110.45(1)
_cell_angle_gamma 90.
_cell_volume 307.34
_cell_formula_units_Z 2
_symmetry_space_group_name_H-M 'P 1 21/m 1'
_symmetry_Int_Tables_number 11
_refine_ls_R_factor_all 0.023
loop_
_symmetry_equiv_pos_site_id
_symmetry_equiv_pos_as_xyz
1 'x, -y+1/2, z'
2 '-x, -y, -z'
3 '-x, y+1/2, -z'
4 'x, y, z'
loop_
_atom_type_symbol
_atom_type_oxidation_number
Pd2+ 2
Ba2+ 2
S2- -2
S1- -1
loop_
_atom_site_label
_atom_site_type_symbol
_atom_site_symmetry_multiplicity
_atom_site_Wyckoff_symbol
_atom_site_fract_x
_atom_site_fract_y
_atom_site_fract_z
_atom_site_B_iso_or_equiv
_atom_site_occupancy
_atom_site_attached_hydrogens
Pd1 Pd2+ 2 a 0 0 0 . 1. 0
Pd2 Pd2+ 2 e 0.9877(1) 0.75 0.4810(1) . 1. 0
Ba1 Ba2+ 2 e 0.4918(1) 0.25 0.2818(1) . 1. 0
S1 S2- 4 f 0.1481(2) 0.4953(3) 0.3704(3) . 1. 0
S2 S1- 2 e 0.7886(4) 0.25 0.0290(4) . 1. 0
S3 S1- 2 e 0.4928(4) 0.75 0.2055(4) . 1. 0
loop_
_atom_site_aniso_label
_atom_site_aniso_type_symbol
_atom_site_aniso_U_11
_atom_site_aniso_U_22
_atom_site_aniso_U_33
_atom_site_aniso_U_12
_atom_site_aniso_U_13
_atom_site_aniso_U_23
Pd1 Pd2+ 0.0092(33) 0.0071(3) 0.0077(3) 0.0005(3) 0.0021(2) -.0002(3)
Pd2 Pd2+ 0.0113(3) 0.0052(3) 0.0076(3) 0 0.0036(3) 0
Ba1 Ba2+ 0.0116(3) 0.0125(3) 0.0131(3) 0 0.0051(2) 0
S1 S2- 0.0111(7) 0.0077(7) 0.0081(6) 0.0001(6) 0.0029(5) 0.0002(6)
S2 S1- 0.0086(10) 0.0101(11) 0.0089(9) 0 0.0019(8) 0
S3 S1- 0.0128(11) 0.0154(11) 0.0107(10) 0 0.0015(9) 0
#End of TTdata_79930-ICSD