
data_80075-ICSD
_database_code_ICSD 80075
_audit_creation_date 1996-10-14
_chemical_name_systematic 'Zinc telluride - II'
_chemical_formula_structural 'Zn Te'
_chemical_formula_sum 'Te1 Zn1'
_chemical_name_structure_type HgS
_exptl_crystal_density_diffrn 7.07
_cell_measurement_pressure 8900000.
_cell_length_a 4.092(1)
_cell_length_b 4.092(1)
_cell_length_c 9.376(3)
_cell_angle_alpha 90.
_cell_angle_beta 90.
_cell_angle_gamma 120.
_cell_volume 135.96
_cell_formula_units_Z 3
_symmetry_space_group_name_H-M 'P 31 2 1'
_symmetry_Int_Tables_number 152
loop_
_symmetry_equiv_pos_site_id
_symmetry_equiv_pos_as_xyz
1 'x-y, -y, -z+2/3'
2 '-x, -x+y, -z+1/3'
3 'y, x, -z'
4 '-x+y, -x, z+2/3'
5 '-y, x-y, z+1/3'
6 'x, y, z'
loop_
_atom_type_symbol
_atom_type_oxidation_number
Zn2+ 2
Te2- -2
loop_
_atom_site_label
_atom_site_type_symbol
_atom_site_symmetry_multiplicity
_atom_site_Wyckoff_symbol
_atom_site_fract_x
_atom_site_fract_y
_atom_site_fract_z
_atom_site_B_iso_or_equiv
_atom_site_occupancy
_atom_site_attached_hydrogens
Zn1 Zn2+ 3 a 0.542(3) 0 0.3333 . 1. 0
Te1 Te2- 3 b 0.506(3) 0 0.8333 . 1. 0
