
#(C) 2017 by FIZ Karlsruhe - Leibniz Institute for Information Infrastructure.  All rights reserved.
data_80327-ICSD
_database_code_ICSD 80327
_audit_creation_date 1997-05-13
_chemical_name_systematic 'Barium diaurate(III)'
_chemical_formula_structural 'Ba (Au2 O4)'
_chemical_formula_sum 'Au2 Ba1 O4'
_chemical_name_structure_type Fe2SnS4
_exptl_crystal_density_diffrn 9.33
_publ_section_title

;
M Au2 O4 (M=Sr, Ba), die ersten Oxoaurate(III) mit dreidimensional vernetzter
anionischer Teilstruktur
;
loop_
_citation_id
_citation_journal_full
_citation_year
_citation_journal_volume
_citation_page_first
_citation_page_last
_citation_journal_id_ASTM
primary 'Journal of Solid State Chemistry' 1995 118 247 253 JSSCBI
loop_
_publ_author_name
'Kraemer, G.'
'Jansen, M.'
_cell_length_a 6.4297(4)
_cell_length_b 6.4297(4)
_cell_length_c 10.251(2)
_cell_angle_alpha 90.
_cell_angle_beta 90.
_cell_angle_gamma 90.
_cell_volume 423.79
_cell_formula_units_Z 4
_symmetry_space_group_name_H-M 'I 41/a Z'
_symmetry_Int_Tables_number 88
_refine_ls_R_factor_all 0.019
loop_
_symmetry_equiv_pos_site_id
_symmetry_equiv_pos_as_xyz
1 '-y+3/4, x+3/4, -z+3/4'
2 'y+1/4, -x+3/4, -z+3/4'
3 'x, y+1/2, -z'
4 '-x, -y, -z'
5 'y+1/4, -x+1/4, z+1/4'
6 '-y+3/4, x+1/4, z+1/4'
7 '-x, -y+1/2, z'
8 'x, y, z'
9 '-y+1/4, x+1/4, -z+1/4'
10 'y+3/4, -x+1/4, -z+1/4'
11 'x+1/2, y, -z+1/2'
12 '-x+1/2, -y+1/2, -z+1/2'
13 'y+3/4, -x+3/4, z+3/4'
14 '-y+1/4, x+3/4, z+3/4'
15 '-x+1/2, -y, z+1/2'
16 'x+1/2, y+1/2, z+1/2'
loop_
_atom_type_symbol
_atom_type_oxidation_number
Ba2+ 2
Au3+ 3
O2- -2
loop_
_atom_site_label
_atom_site_type_symbol
_atom_site_symmetry_multiplicity
_atom_site_Wyckoff_symbol
_atom_site_fract_x
_atom_site_fract_y
_atom_site_fract_z
_atom_site_B_iso_or_equiv
_atom_site_occupancy
_atom_site_attached_hydrogens
Ba1 Ba2+ 4 a 0 0.25 0.125 . 1. 0
Au1 Au3+ 8 d 0 0 0.5 . 1. 0
O1 O2- 16 f 0.1476(10) 0.0165(10) 0.3282(6) . 1. 0
loop_
_atom_site_aniso_label
_atom_site_aniso_type_symbol
_atom_site_aniso_U_11
_atom_site_aniso_U_22
_atom_site_aniso_U_33
_atom_site_aniso_U_12
_atom_site_aniso_U_13
_atom_site_aniso_U_23
Ba1 Ba2+ 0.010(1) 0.010(1) 0.008(1) 0 0 0
Au1 Au3+ 0.008(1) 0.007(1) 0.005(1) 0.000(1) 0.000(1) -.001(1)
O1 O2- 0.015(3) 0.012(3) 0.006(1) -.001(3) 0.005(3) 0.000(2)
#End of TTdata_80327-ICSD