
#(C) 2017 by FIZ Karlsruhe - Leibniz Institute for Information Infrastructure.  All rights reserved.
data_80625-ICSD
_database_code_ICSD 80625
_audit_creation_date 1997-05-13
_chemical_name_systematic 'Potassium copper(I) zirconium selenide'
_chemical_formula_structural 'K Cu Zr Se3'
_chemical_formula_sum 'Cu1 K1 Se3 Zr1'
_chemical_name_structure_type KCuZrS3
_exptl_crystal_density_diffrn 5.01
_cell_measurement_temperature 113.
_publ_section_title

;
Synthesis, structure, and conductivity of the new group IV chalcogenides, K Cu
Zr Q3 (Q = S, Se, Te)
;
loop_
_citation_id
_citation_journal_full
_citation_year
_citation_journal_volume
_citation_page_first
_citation_page_last
_citation_journal_id_ASTM
primary 'Journal of Solid State Chemistry' 1992 101 257 264 JSSCBI
loop_
_publ_author_name
'Mansuetto, M.F.'
'Keane, P.M.'
'Ibers, J.A.'
_cell_length_a 3.874(2)
_cell_length_b 14.506(7)
_cell_length_c 10.159(5)
_cell_angle_alpha 90.
_cell_angle_beta 90.
_cell_angle_gamma 90.
_cell_volume 570.9
_cell_formula_units_Z 4
_symmetry_space_group_name_H-M 'C m c m'
_symmetry_Int_Tables_number 63
_refine_ls_R_factor_all 0.038
loop_
_symmetry_equiv_pos_site_id
_symmetry_equiv_pos_as_xyz
1 '-x, y, -z+1/2'
2 '-x, -y, z+1/2'
3 '-x, y, z'
4 '-x, -y, -z'
5 'x, -y, z+1/2'
6 'x, y, -z+1/2'
7 'x, -y, -z'
8 'x, y, z'
9 '-x+1/2, y+1/2, -z+1/2'
10 '-x+1/2, -y+1/2, z+1/2'
11 '-x+1/2, y+1/2, z'
12 '-x+1/2, -y+1/2, -z'
13 'x+1/2, -y+1/2, z+1/2'
14 'x+1/2, y+1/2, -z+1/2'
15 'x+1/2, -y+1/2, -z'
16 'x+1/2, y+1/2, z'
loop_
_atom_type_symbol
_atom_type_oxidation_number
K1+ 1
Cu1+ 1
Zr4+ 4
Se2- -2
loop_
_atom_site_label
_atom_site_type_symbol
_atom_site_symmetry_multiplicity
_atom_site_Wyckoff_symbol
_atom_site_fract_x
_atom_site_fract_y
_atom_site_fract_z
_atom_site_B_iso_or_equiv
_atom_site_occupancy
_atom_site_attached_hydrogens
K1 K1+ 4 c 0 0.747010(95) 0.25 1.79(3) 1. 0
Cu1 Cu1+ 4 c 0 0.464520(58) 0.25 1.39(2) 1. 0
Zr1 Zr4+ 4 a 0 0 0 0.98(1) 1. 0
Se1 Se2- 8 f 0 0.374900(26) 0.050770(38) 0.922(8) 1. 0
Se2 Se2- 4 c 0 0.066680(42) 0.25 0.95(1) 1. 0
#End of TTdata_80625-ICSD