
#(C) 2017 by FIZ Karlsruhe - Leibniz Institute for Information Infrastructure.  All rights reserved.
data_80772-ICSD
_database_code_ICSD 80772
_audit_creation_date 1997-05-13
_chemical_name_systematic 'Strontium trinitridomanganate(III)'
_chemical_formula_structural 'Sr3 Mn N3'
_chemical_formula_sum 'Mn1 N3 Sr3'
_chemical_name_structure_type Ba3FeN3
_exptl_crystal_density_diffrn 4.46
_publ_section_title

;
Sr3 (Mn N3) und Ba3 (Mn N3), die ersten Nitridomanganate(III):
trigonal-planare Anionen (Mn(III) N3)(6-)
;
loop_
_citation_id
_citation_journal_full
_citation_year
_citation_journal_volume
_citation_page_first
_citation_page_last
_citation_journal_id_ASTM
primary 'Zeitschrift fuer Naturforschung, B: Chemical Sciences' 1993 48 794 796
ZNBSEN
loop_
_publ_author_name
'Tennstedt, A.'
'Roehr, C.'
'Kniep, R.'
_cell_length_a 7.642(1)
_cell_length_b 7.642(1)
_cell_length_c 5.298(1)
_cell_angle_alpha 90.
_cell_angle_beta 90.
_cell_angle_gamma 120.
_cell_volume 267.95
_cell_formula_units_Z 2
_symmetry_space_group_name_H-M 'P 63/m'
_symmetry_Int_Tables_number 176
_refine_ls_R_factor_all 0.05
loop_
_symmetry_equiv_pos_site_id
_symmetry_equiv_pos_as_xyz
1 '-x+y, -x, -z+1/2'
2 '-y, x-y, -z+1/2'
3 'x, y, -z+1/2'
4 'x-y, x, -z'
5 'y, -x+y, -z'
6 '-x, -y, -z'
7 'x-y, x, z+1/2'
8 'y, -x+y, z+1/2'
9 '-x, -y, z+1/2'
10 '-x+y, -x, z'
11 '-y, x-y, z'
12 'x, y, z'
loop_
_atom_type_symbol
_atom_type_oxidation_number
Sr2+ 2
Mn3+ 3
N3- -3
loop_
_atom_site_label
_atom_site_type_symbol
_atom_site_symmetry_multiplicity
_atom_site_Wyckoff_symbol
_atom_site_fract_x
_atom_site_fract_y
_atom_site_fract_z
_atom_site_B_iso_or_equiv
_atom_site_occupancy
_atom_site_attached_hydrogens
Sr1 Sr2+ 6 h 0.3564(2) 0.2689(2) 0.25 . 1. 0
Mn1 Mn3+ 2 c 0.3333 0.6667 0.25 . 1. 0
N1 N3- 6 h 0.1176(20) 0.4275(20) 0.25 0.0098(24) 1. 0
loop_
_atom_site_aniso_label
_atom_site_aniso_type_symbol
_atom_site_aniso_U_11
_atom_site_aniso_U_22
_atom_site_aniso_U_33
_atom_site_aniso_U_12
_atom_site_aniso_U_13
_atom_site_aniso_U_23
Sr1 Sr2+ 0.0097(6) 0.0073(6) 0.0054(6) 0.0070(5) 0 0
Mn1 Mn3+ 0.0026(9) 0.0026(9) 0.0055(16) 0.0013(5) 0 0
#End of TTdata_80772-ICSD