
#(C) 2017 by FIZ Karlsruhe - Leibniz Institute for Information Infrastructure.  All rights reserved.
data_8128-ICSD
_database_code_ICSD 8128
_audit_creation_date 1980-01-01
_audit_update_record 2005-10-01
_chemical_name_systematic 'Iron(III) niobium oxide'
_chemical_formula_structural 'Fe Nb O4'
_chemical_formula_sum 'Fe1 Nb1 O4'
_chemical_name_structure_type Wolframite-NiWO4
_exptl_crystal_density_diffrn 5.4
_cell_measurement_temperature 1273.
_publ_section_title

;
Nonstoichiometric mixed phases with alpha-Pb O2 - structure and with related
structures I. Fe Nb O4  in the system Fe2 O3 - Nb2 O5
;
loop_
_citation_id
_citation_journal_full
_citation_year
_citation_journal_volume
_citation_page_first
_citation_page_last
_citation_journal_id_ASTM
primary 'Neues Jahrbuch fuer Mineralogie. Abhandlungen (Band-Nr) (1950-)' 1973
119 285 309 NJMIAK
loop_
_publ_author_name
'Weitzel, H.'
'Schroecke, H.'
_cell_length_a 4.6512(1)
_cell_length_b 5.6218(1)
_cell_length_c 5.0005(1)
_cell_angle_alpha 90.
_cell_angle_beta 90.000(3)
_cell_angle_gamma 90.
_cell_volume 130.75
_cell_formula_units_Z 2
_symmetry_space_group_name_H-M 'P 1 2/c 1'
_symmetry_Int_Tables_number 13
_refine_ls_R_factor_all 0.025
loop_
_symmetry_equiv_pos_site_id
_symmetry_equiv_pos_as_xyz
1 'x, -y, z+1/2'
2 '-x, -y, -z'
3 '-x, y, -z+1/2'
4 'x, y, z'
loop_
_atom_type_symbol
_atom_type_oxidation_number
Fe3+ 3
Nb5+ 5
O2- -2
loop_
_atom_site_label
_atom_site_type_symbol
_atom_site_symmetry_multiplicity
_atom_site_Wyckoff_symbol
_atom_site_fract_x
_atom_site_fract_y
_atom_site_fract_z
_atom_site_B_iso_or_equiv
_atom_site_occupancy
_atom_site_attached_hydrogens
Fe1 Fe3+ 2 f 0.5 0.6727(2) 0.25 0.66 1. 0
Nb1 Nb5+ 2 e 0 0.1757(3) 0.25 0.65 1. 0
O1 O2- 4 g 0.2324(2) 0.1118(3) 0.5731(3) 0.5 1. 0
O2 O2- 4 g 0.2726(2) 0.3808(3) 0.0892(3) 0.57 1. 0
#End of TTdata_8128-ICSD