
#(C) 2017 by FIZ Karlsruhe - Leibniz Institute for Information Infrastructure.  All rights reserved.
data_81457-ICSD
_database_code_ICSD 81457
_audit_creation_date 1997-11-05
_chemical_name_systematic 'Dibarium copper phosphate(V)'
_chemical_formula_structural 'Ba2 Cu (P O4)2'
_chemical_formula_sum 'Ba2 Cu1 O8 P2'
_chemical_name_structure_type Sr2Cu(PO4)2
_exptl_crystal_density_diffrn 4.23
_cell_measurement_temperature 296.
_publ_section_title

;
Synthesis and characterization of a new quasi-one-dimensional copper(II)
phosphate, Ba2 Cu (P O4)2
;
loop_
_citation_id
_citation_journal_full
_citation_year
_citation_journal_volume
_citation_page_first
_citation_page_last
_citation_journal_id_ASTM
primary 'Inorganic Chemistry' 1996 35 1474 1477 INOCAJ
loop_
_publ_author_name
'Etheredge, K.M.S.'
'Hwu, S.-J.'
_cell_length_a 12.160(4)
_cell_length_b 5.133(4)
_cell_length_c 6.885(4)
_cell_angle_alpha 90.
_cell_angle_beta 105.42(4)
_cell_angle_gamma 90.
_cell_volume 414.27
_cell_formula_units_Z 2
_symmetry_space_group_name_H-M 'C 1 2/m 1'
_symmetry_Int_Tables_number 12
_refine_ls_R_factor_all 0.02
loop_
_symmetry_equiv_pos_site_id
_symmetry_equiv_pos_as_xyz
1 '-x, y, -z'
2 '-x, -y, -z'
3 'x, -y, z'
4 'x, y, z'
5 '-x+1/2, y+1/2, -z'
6 '-x+1/2, -y+1/2, -z'
7 'x+1/2, -y+1/2, z'
8 'x+1/2, y+1/2, z'
loop_
_atom_type_symbol
_atom_type_oxidation_number
Ba2+ 2
Cu2+ 2
P5+ 5
O2- -2
loop_
_atom_site_label
_atom_site_type_symbol
_atom_site_symmetry_multiplicity
_atom_site_Wyckoff_symbol
_atom_site_fract_x
_atom_site_fract_y
_atom_site_fract_z
_atom_site_B_iso_or_equiv
_atom_site_occupancy
_atom_site_attached_hydrogens
Ba1 Ba2+ 4 i 0.17377(3) 0 0.21462(6) 0.72(2) 1. 0
Cu1 Cu2+ 2 d 0 0.5 0.5 0.69(4) 1. 0
P1 P5+ 4 i 0.1334(1) 0 0.7019(3) 0.72(6) 1. 0
O1 O2- 4 i 0.0467(4) 0 0.8235(7) 1.3(2) 1. 0
O2 O2- 4 i 0.2548(4) 0 0.8419(7) 1.0(2) 1. 0
O3 O2- 8 j 0.1219(3) 0.2442(6) 0.5630(5) 0.9(1) 1. 0
#End of TTdata_81457-ICSD