
#(C) 2017 by FIZ Karlsruhe - Leibniz Institute for Information Infrastructure.  All rights reserved.
data_81870-ICSD
_database_code_ICSD 81870
_audit_creation_date 1999-11-30
_audit_update_record 2012-02-01
_chemical_name_systematic 'Rubidium lanthanum ditantalate'
_chemical_formula_structural 'Rb La (Ta2 O7)'
_chemical_formula_sum 'La1 O7 Rb1 Ta2'
_chemical_name_structure_type RbLaTa2O7
_exptl_crystal_density_diffrn 6.93
_publ_section_title

;
Synthesis and structure determination of new layered perovskite compounds, A
La Ta2 O7 and A Ca2 Ta3 O10 (A= Rb, Li)
;
loop_
_citation_id
_citation_journal_full
_citation_year
_citation_journal_volume
_citation_page_first
_citation_page_last
_citation_journal_id_ASTM
primary 'Journal of Materials Chemistry' 1996 6 1067 1071 JMACEP
loop_
_publ_author_name
'Toda, K.'
'Sato, M.'
_cell_length_a 3.8820(1)
_cell_length_b 3.8820(1)
_cell_length_c 11.1053(5)
_cell_angle_alpha 90.
_cell_angle_beta 90.
_cell_angle_gamma 90.
_cell_volume 167.36
_cell_formula_units_Z 1
_symmetry_space_group_name_H-M 'P 4/m m m'
_symmetry_Int_Tables_number 123
_refine_ls_R_factor_all 0.014
loop_
_symmetry_equiv_pos_site_id
_symmetry_equiv_pos_as_xyz
1 'y, x, -z'
2 '-y, -x, -z'
3 '-y, x, -z'
4 'y, -x, -z'
5 '-x, y, -z'
6 'x, -y, -z'
7 'x, y, -z'
8 '-x, -y, -z'
9 '-y, -x, z'
10 'y, x, z'
11 'y, -x, z'
12 '-y, x, z'
13 'x, -y, z'
14 '-x, y, z'
15 '-x, -y, z'
16 'x, y, z'
loop_
_atom_type_symbol
_atom_type_oxidation_number
Rb1+ 1
La3+ 3
Ta5+ 5
O2- -2
loop_
_atom_site_label
_atom_site_type_symbol
_atom_site_symmetry_multiplicity
_atom_site_Wyckoff_symbol
_atom_site_fract_x
_atom_site_fract_y
_atom_site_fract_z
_atom_site_B_iso_or_equiv
_atom_site_occupancy
_atom_site_attached_hydrogens
Rb1 Rb1+ 1 d 0.5 0.5 0.5 1.8(3) 1. 0
La1 La3+ 1 c 0.5 0.5 0 0.5(2) 1. 0
Ta1 Ta5+ 2 g 0 0 0.2058(3) 0.1(1) 1. 0
O1 O2- 1 a 0 0 0 1.4(8) 1. 0
O2 O2- 4 i 0 0.5 0.173(3) 1.4(8) 1. 0
O3 O2- 2 g 0 0 0.358(5) 1.4(8) 1. 0
#End of TTdata_81870-ICSD