
#(C) 2017 by FIZ Karlsruhe - Leibniz Institute for Information Infrastructure.  All rights reserved.
data_81977-ICSD
_database_code_ICSD 81977
_audit_creation_date 1997-11-10
_audit_update_record 2007-08-01
_chemical_name_systematic 'Tin chloride'
_chemical_formula_structural 'Sn Cl2'
_chemical_formula_sum 'Cl2 Sn1'
_chemical_name_structure_type PbCl2
_chemical_name_mineral Cotunnite-(Sn)
_exptl_crystal_density_diffrn 4.43
_cell_measurement_pressure 4000000.
_publ_section_title

;
The high pressure behaviour of the cotunnite and post-cotunnite phases of Pb
Cl2 and Sn Cl2
;
loop_
_citation_id
_citation_journal_full
_citation_year
_citation_journal_volume
_citation_page_first
_citation_page_last
_citation_journal_id_ASTM
primary 'Journal of Physics and Chemistry of Solids' 1996 57 7 16 JPCSAW
loop_
_publ_author_name
'Leger, J.M.'
'Haines, J.'
'Atouf, A.'
_cell_length_a 7.43(3)
_cell_length_b 8.83(3)
_cell_length_c 4.33(3)
_cell_angle_alpha 90.
_cell_angle_beta 90.
_cell_angle_gamma 90.
_cell_volume 284.08
_cell_formula_units_Z 4
_symmetry_space_group_name_H-M 'P n a m'
_symmetry_Int_Tables_number 62
loop_
_symmetry_equiv_pos_site_id
_symmetry_equiv_pos_as_xyz
1 'x+1/2, -y+1/2, z'
2 'x, y, -z+1/2'
3 '-x+1/2, y+1/2, z+1/2'
4 '-x, -y, -z'
5 '-x+1/2, y+1/2, -z'
6 '-x, -y, z+1/2'
7 'x+1/2, -y+1/2, -z+1/2'
8 'x, y, z'
loop_
_atom_type_symbol
_atom_type_oxidation_number
Sn2+ 2
Cl1- -1
loop_
_atom_site_label
_atom_site_type_symbol
_atom_site_symmetry_multiplicity
_atom_site_Wyckoff_symbol
_atom_site_fract_x
_atom_site_fract_y
_atom_site_fract_z
_atom_site_B_iso_or_equiv
_atom_site_occupancy
_atom_site_attached_hydrogens
Sn1 Sn2+ 4 c 0.267 0.01 0.25 . 1. 0
Cl1 Cl1- 4 c 0.385 0.43 0.25 . 1. 0
Cl2 Cl1- 4 c 0.015 0.336 0.75 . 1. 0
#End of TTdata_81977-ICSD