
#(C) 2017 by FIZ Karlsruhe - Leibniz Institute for Information Infrastructure.  All rights reserved.
data_8221-ICSD
_database_code_ICSD 8221
_audit_creation_date 1980-01-01
_audit_update_record 2006-04-01
_chemical_name_systematic 'Magnesium copper(I) phosphide'
_chemical_formula_structural 'Mg Cu P'
_chemical_formula_sum 'Cu1 Mg1 P1'
_chemical_name_structure_type TiNiSi-MgSrSi
_exptl_crystal_density_diffrn 4.39
_publ_section_title

;
Darstellung und Struktur der Verbindungen Mg Cu P, Ba Cu P (As) und Ba Ag P
(As)
;
loop_
_citation_id
_citation_journal_full
_citation_year
_citation_journal_volume
_citation_page_first
_citation_page_last
_citation_journal_id_ASTM
primary

;
Zeitschrift fuer Naturforschung, Teil B. Anorganische Chemie, Organische
Chemie (33,1978-41,1986)
; 1979 34 1373 1376 ZNBAD2
loop_
_publ_author_name
'Mewis, A.'
_cell_length_a 6.532(1)
_cell_length_b 3.835(1)
_cell_length_c 7.170(1)
_cell_angle_alpha 90.
_cell_angle_beta 90.
_cell_angle_gamma 90.
_cell_volume 179.61
_cell_formula_units_Z 4
_symmetry_space_group_name_H-M 'P n m a'
_symmetry_Int_Tables_number 62
_refine_ls_R_factor_all 0.06
loop_
_symmetry_equiv_pos_site_id
_symmetry_equiv_pos_as_xyz
1 'x+1/2, y, -z+1/2'
2 'x, -y+1/2, z'
3 '-x+1/2, y+1/2, z+1/2'
4 '-x, -y, -z'
5 '-x+1/2, -y, z+1/2'
6 '-x, y+1/2, -z'
7 'x+1/2, -y+1/2, -z+1/2'
8 'x, y, z'
loop_
_atom_type_symbol
_atom_type_oxidation_number
Mg2+ 2
Cu1+ 1
P3- -3
loop_
_atom_site_label
_atom_site_type_symbol
_atom_site_symmetry_multiplicity
_atom_site_Wyckoff_symbol
_atom_site_fract_x
_atom_site_fract_y
_atom_site_fract_z
_atom_site_B_iso_or_equiv
_atom_site_occupancy
_atom_site_attached_hydrogens
Mg1 Mg2+ 4 c 0.5327(7) 0.25 0.6793(6) . 1. 0
Cu1 Cu1+ 4 c 0.6277(3) 0.25 0.0629(2) . 1. 0
P1 P3- 4 c 0.2520(5) 0.25 0.1211(4) . 1. 0
loop_
_atom_site_aniso_label
_atom_site_aniso_type_symbol
_atom_site_aniso_U_11
_atom_site_aniso_U_22
_atom_site_aniso_U_33
_atom_site_aniso_U_12
_atom_site_aniso_U_13
_atom_site_aniso_U_23
Mg1 Mg2+ 0.0144(17) 0.0123(16) 0.0087(14) 0 0.0006(14) 0
Cu1 Cu1+ 0.0164(5) 0.0135(5) 0.0089(4) 0 0.0001(6) 0
P1 P3- 0.0078(9) 0.0104(10) 0.0065(8) 0 -.0005(9) 0
#End of TTdata_8221-ICSD