
#(C) 2017 by FIZ Karlsruhe - Leibniz Institute for Information Infrastructure.  All rights reserved.
data_82236-ICSD
_database_code_ICSD 82236
_audit_creation_date 1999-11-30
_audit_update_record 2005-10-01
_chemical_name_systematic 'Iron oxide'
_chemical_formula_structural 'Fe O'
_chemical_formula_sum 'Fe1 O1'
_exptl_crystal_density_diffrn 5.94
_cell_measurement_temperature 12.
_publ_section_title

;
On the crystallographic and magnetic structures of nearly stoichiometric iron
monoxide
;
loop_
_citation_id
_citation_journal_full
_citation_year
_citation_journal_volume
_citation_page_first
_citation_page_last
_citation_journal_id_ASTM
primary 'Journal of Solid State Chemistry' 1996 124 52 57 JSSCBI
loop_
_publ_author_name
'Fjellvag, H.'
'Gronvold, F.'
'Stolen, S.'
'Hauback, B.C.'
_cell_length_a 6.132(3)
_cell_length_b 6.132(3)
_cell_length_c 6.132(3)
_cell_angle_alpha 59.34(3)
_cell_angle_beta 59.34(3)
_cell_angle_gamma 59.34(3)
_cell_volume 160.59
_cell_formula_units_Z 8
_symmetry_space_group_name_H-M 'R -3 R'
_symmetry_Int_Tables_number 148
_refine_ls_R_factor_all 0.059
loop_
_symmetry_equiv_pos_site_id
_symmetry_equiv_pos_as_xyz
1 '-z, -x, -y'
2 '-y, -z, -x'
3 '-x, -y, -z'
4 'z, x, y'
5 'y, z, x'
6 'x, y, z'
loop_
_atom_type_symbol
_atom_type_oxidation_number
Fe2+ 2
O2- -2
loop_
_atom_site_label
_atom_site_type_symbol
_atom_site_symmetry_multiplicity
_atom_site_Wyckoff_symbol
_atom_site_fract_x
_atom_site_fract_y
_atom_site_fract_z
_atom_site_B_iso_or_equiv
_atom_site_occupancy
_atom_site_attached_hydrogens
Fe1 Fe2+ 1 a 0 0 0 . 1. 0
Fe2 Fe2+ 1 b 0.5 0.5 0.5 . 1. 0
Fe3 Fe2+ 3 d 0.5 0 0 . 1. 0
Fe4 Fe2+ 3 e 0 0.5 0.5 . 1. 0
O1 O2- 2 c 0.25 0.25 0.25 . 1. 0
O2 O2- 6 f 0.25 0.25 0.75 . 1. 0
#End of TTdata_82236-ICSD