
#(C) 2017 by FIZ Karlsruhe - Leibniz Institute for Information Infrastructure.  All rights reserved.
data_82330-ICSD
_database_code_ICSD 82330
_audit_creation_date 1997-11-10
_audit_update_record 2016-02-01
_chemical_name_systematic 'Copper selenide - HT'
_chemical_formula_structural 'Cu Se'
_chemical_formula_sum 'Cu1 Se1'
_chemical_name_structure_type CuS
_chemical_name_mineral Klockmannite
_exptl_crystal_density_diffrn 5.99
_cell_measurement_temperature 353.
_publ_section_title

;
Heat capacity, structural and thermodynamic properties of synthetic
klockmannite Cu Se at temperatures from 5 K to 652.7 K. Enthalpy of
decomposition
;
loop_
_citation_id
_citation_journal_full
_citation_year
_citation_journal_volume
_citation_page_first
_citation_page_last
_citation_journal_id_ASTM
primary 'Journal of Chemical Thermodynamics' 1996 28 753 766 JCTDAF
loop_
_publ_author_name
'Stolen, S.'
'Fjellvag, H.'
'Gronvold, F.'
'Sipowska, J.T.'
'Westrum, E.F.jr.'
_cell_length_a 3.952(1)
_cell_length_b 6.962(1)
_cell_length_c 17.235(1)
_cell_angle_alpha 90.
_cell_angle_beta 90.
_cell_angle_gamma 90.
_cell_volume 474.2
_cell_formula_units_Z 12
_symmetry_space_group_name_H-M 'C m c m'
_symmetry_Int_Tables_number 63
_refine_ls_R_factor_all 0.097
loop_
_symmetry_equiv_pos_site_id
_symmetry_equiv_pos_as_xyz
1 '-x, y, -z+1/2'
2 '-x, -y, z+1/2'
3 '-x, y, z'
4 '-x, -y, -z'
5 'x, -y, z+1/2'
6 'x, y, -z+1/2'
7 'x, -y, -z'
8 'x, y, z'
9 '-x+1/2, y+1/2, -z+1/2'
10 '-x+1/2, -y+1/2, z+1/2'
11 '-x+1/2, y+1/2, z'
12 '-x+1/2, -y+1/2, -z'
13 'x+1/2, -y+1/2, z+1/2'
14 'x+1/2, y+1/2, -z+1/2'
15 'x+1/2, -y+1/2, -z'
16 'x+1/2, y+1/2, z'
loop_
_atom_type_symbol
_atom_type_oxidation_number
Cu2+ 2
Cu1+ 1
Se2- -2
Se1- -1
loop_
_atom_site_label
_atom_site_type_symbol
_atom_site_symmetry_multiplicity
_atom_site_Wyckoff_symbol
_atom_site_fract_x
_atom_site_fract_y
_atom_site_fract_z
_atom_site_B_iso_or_equiv
_atom_site_occupancy
_atom_site_attached_hydrogens
Cu1 Cu2+ 4 c 0 0.367(2) 0.75 1.7(2) 1. 0
Cu2 Cu1+ 8 f 0 0.342(2) 0.1062(8) 1.7(2) 1. 0
Se1 Se2- 4 c 0 0.305(2) 0.25 1.2(1) 1. 0
Se2 Se1- 8 f 0 0.005(1) 0.0680(5) 1.2(1) 1. 0
#End of TTdata_82330-ICSD