
#(C) 2017 by FIZ Karlsruhe - Leibniz Institute for Information Infrastructure.  All rights reserved.
data_82378-ICSD
_database_code_ICSD 82378
_audit_creation_date 1997-11-10
_chemical_name_systematic 'Cesium lanthanum diniobium heptaoxide'
_chemical_formula_structural 'Cs La Nb2 O7'
_chemical_formula_sum 'Cs1 La1 Nb2 O7'
_exptl_crystal_density_diffrn 5.55
_cell_measurement_temperature 296.
_publ_section_title 'Cs La Nb2 O7'
loop_
_citation_id
_citation_journal_full
_citation_year
_citation_journal_volume
_citation_page_first
_citation_page_last
_citation_journal_id_ASTM
primary 'Acta Crystallographica, Section C: Crystal Structure Communications'
1996 52 1063 1065 ACSCEE
loop_
_publ_author_name
'Kumada, N.'
'Kinomura, N.'
'Sleight, A.W.'
_cell_length_a 3.908(1)
_cell_length_b 3.908(1)
_cell_length_c 11.160(4)
_cell_angle_alpha 90.
_cell_angle_beta 90.
_cell_angle_gamma 90.
_cell_volume 170.44
_cell_formula_units_Z 1
_symmetry_space_group_name_H-M 'P 4/m m m'
_symmetry_Int_Tables_number 123
_refine_ls_R_factor_all 0.026
loop_
_symmetry_equiv_pos_site_id
_symmetry_equiv_pos_as_xyz
1 'y, x, -z'
2 '-y, -x, -z'
3 '-y, x, -z'
4 'y, -x, -z'
5 '-x, y, -z'
6 'x, -y, -z'
7 'x, y, -z'
8 '-x, -y, -z'
9 '-y, -x, z'
10 'y, x, z'
11 'y, -x, z'
12 '-y, x, z'
13 'x, -y, z'
14 '-x, y, z'
15 '-x, -y, z'
16 'x, y, z'
loop_
_atom_type_symbol
_atom_type_oxidation_number
La3+ 3
Cs1+ 1
Nb5+ 5
O2- -2
loop_
_atom_site_label
_atom_site_type_symbol
_atom_site_symmetry_multiplicity
_atom_site_Wyckoff_symbol
_atom_site_fract_x
_atom_site_fract_y
_atom_site_fract_z
_atom_site_B_iso_or_equiv
_atom_site_occupancy
_atom_site_attached_hydrogens
La1 La3+ 1 a 0 0 0 . 1. 0
Cs1 Cs1+ 1 b 0 0 0.5 . 1. 0
Nb1 Nb5+ 2 h 0.5 0.5 0.20139(5) . 1. 0
O1 O2- 4 i 0 0.5 0.1634(6) . 1. 0
O2 O2- 2 h 0.5 0.5 0.3569(6) . 1. 0
O3 O2- 1 c 0.5 0.5 0 . 1. 0
loop_
_atom_site_aniso_label
_atom_site_aniso_type_symbol
_atom_site_aniso_U_11
_atom_site_aniso_U_22
_atom_site_aniso_U_33
_atom_site_aniso_U_12
_atom_site_aniso_U_13
_atom_site_aniso_U_23
La1 La3+ 0.0094(1) 0.0094(1) 0.0070(2) 0 0 0
Cs1 Cs1+ 0.0174(2) 0.0174(2) 0.0287(4) 0 0 0
Nb1 Nb5+ 0.0046(1) 0.0046(1) 0.0058(2) 0 0 0
O1 O2- 0.004(2) 0.017(2) 0.049(3) 0 0 0
O2 O2- 0.047(4) 0.047(4) 0.005(2) 0 0 0
O3 O2- 0.067(7) 0.067(7) 0.003(3) 0 0 0
#End of TTdata_82378-ICSD