
#(C) 2017 by FIZ Karlsruhe - Leibniz Institute for Information Infrastructure.  All rights reserved.
data_83365-ICSD
_database_code_ICSD 83365
_audit_creation_date 1998-06-26
_chemical_name_systematic 'Rubidium iodate(VII)'
_chemical_formula_structural 'Rb (I O4)'
_chemical_formula_sum 'I1 O4 Rb1'
_chemical_name_structure_type Scheelite-CaWO4
_exptl_crystal_density_diffrn 4.04
_cell_measurement_temperature 297.
_publ_section_title
'Structure refinement of rubidium periodate at 297 and 150 K'
loop_
_citation_id
_citation_journal_full
_citation_year
_citation_journal_volume
_citation_page_first
_citation_page_last
_citation_journal_id_ASTM
primary 'Zeitschrift fuer Naturforschung, B: Chemical Sciences' 1996 51 1365
1367 ZNBSEN
loop_
_publ_author_name
'de Waal, D.'
'Range, K.J.'
_cell_length_a 5.910(1)
_cell_length_b 5.910(1)
_cell_length_c 13.021(3)
_cell_angle_alpha 90.
_cell_angle_beta 90.
_cell_angle_gamma 90.
_cell_volume 454.8
_cell_formula_units_Z 4
_symmetry_space_group_name_H-M 'I 41/a Z'
_symmetry_Int_Tables_number 88
_refine_ls_R_factor_all 0.027
loop_
_symmetry_equiv_pos_site_id
_symmetry_equiv_pos_as_xyz
1 '-y+3/4, x+3/4, -z+3/4'
2 'y+1/4, -x+3/4, -z+3/4'
3 'x, y+1/2, -z'
4 '-x, -y, -z'
5 'y+1/4, -x+1/4, z+1/4'
6 '-y+3/4, x+1/4, z+1/4'
7 '-x, -y+1/2, z'
8 'x, y, z'
9 '-y+1/4, x+1/4, -z+1/4'
10 'y+3/4, -x+1/4, -z+1/4'
11 'x+1/2, y, -z+1/2'
12 '-x+1/2, -y+1/2, -z+1/2'
13 'y+3/4, -x+3/4, z+3/4'
14 '-y+1/4, x+3/4, z+3/4'
15 '-x+1/2, -y, z+1/2'
16 'x+1/2, y+1/2, z+1/2'
loop_
_atom_type_symbol
_atom_type_oxidation_number
I7+ 7
Rb1+ 1
O2- -2
loop_
_atom_site_label
_atom_site_type_symbol
_atom_site_symmetry_multiplicity
_atom_site_Wyckoff_symbol
_atom_site_fract_x
_atom_site_fract_y
_atom_site_fract_z
_atom_site_B_iso_or_equiv
_atom_site_occupancy
_atom_site_attached_hydrogens
I1 I7+ 4 a 0 0.25 0.125 . 1. 0
Rb1 Rb1+ 4 b 0.5 0.75 0.125 . 1. 0
O1 O2- 16 f 0.1199(4) 0.4646(4) 0.2011(2) . 1. 0
loop_
_atom_site_aniso_label
_atom_site_aniso_type_symbol
_atom_site_aniso_U_11
_atom_site_aniso_U_22
_atom_site_aniso_U_33
_atom_site_aniso_U_12
_atom_site_aniso_U_13
_atom_site_aniso_U_23
I1 I7+ 0.0230(5) 0.0230(5) 0.0228(6) 0 0 0
Rb1 Rb1+ 0.0288(5) 0.0288(5) 0.0255(9) 0 0 0
O1 O2- 0.038(1) 0.036(1) 0.032(1) -.009(1) -.0008(10) -.0078(9)
#End of TTdata_83365-ICSD