
data_83527-ICSD
_database_code_ICSD 83527
_audit_creation_date 1998-06-26
_chemical_name_systematic 'Cadmium dialuminium tetraselenide'
_chemical_formula_structural 'Cd Al2 Se4'
_chemical_formula_sum 'Al2 Cd1 Se4'
_chemical_name_structure_type Al2CdS4
_exptl_crystal_density_diffrn 4.5
_cell_length_a 5.7606(1)
_cell_length_b 5.7606(1)
_cell_length_c 10.7138(3)
_cell_angle_alpha 90.
_cell_angle_beta 90.
_cell_angle_gamma 90.
_cell_volume 355.53
_cell_formula_units_Z 2
_symmetry_space_group_name_H-M 'I -4'
_symmetry_Int_Tables_number 82
_refine_ls_R_factor_all 0.075
loop_
_symmetry_equiv_pos_site_id
_symmetry_equiv_pos_as_xyz
1 '-y, x, -z'
2 'y, -x, -z'
3 '-x, -y, z'
4 'x, y, z'
5 '-y+1/2, x+1/2, -z+1/2'
6 'y+1/2, -x+1/2, -z+1/2'
7 '-x+1/2, -y+1/2, z+1/2'
8 'x+1/2, y+1/2, z+1/2'
loop_
_atom_type_symbol
_atom_type_oxidation_number
Cd2+ 2
Al3+ 3
Se2- -2
loop_
_atom_site_label
_atom_site_type_symbol
_atom_site_symmetry_multiplicity
_atom_site_Wyckoff_symbol
_atom_site_fract_x
_atom_site_fract_y
_atom_site_fract_z
_atom_site_B_iso_or_equiv
_atom_site_occupancy
_atom_site_attached_hydrogens
Cd1 Cd2+ 2 a 0 0 0 0.0194(8) 1. 0
Al1 Al3+ 2 b 0 0 0.5 0.040(4) 1. 0
Al2 Al3+ 2 c 0 0.5 0.25 0.051(5) 1. 0
Se1 Se2- 8 g 0.2686(9) 0.267(1) 0.1366(2) 0.0231(5) 1. 0
