
#(C) 2017 by FIZ Karlsruhe - Leibniz Institute for Information Infrastructure.  All rights reserved.
data_83723-ICSD
_database_code_ICSD 83723
_audit_creation_date 1999-01-19
_audit_update_record 2007-04-01
_chemical_name_systematic 'Cobalt hexafluorozirconate - LT'
_chemical_formula_structural 'Co (Zr F6)'
_chemical_formula_sum 'Co1 F6 Zr1'
_chemical_name_structure_type LiSbF6
_exptl_crystal_density_diffrn 3.64
_cell_measurement_temperature 50.
_publ_section_title

;
Structural phase transition in the ordered fluorides M(II) Zr F6 (M(II) = Co,
Zn) : I.Structural study
;
loop_
_citation_id
_citation_journal_full
_citation_year
_citation_journal_volume
_citation_page_first
_citation_page_last
_citation_journal_id_ASTM
primary 'Journal of Physics: Condensed Matter' 1990 2 7373 7386 JCOMEL
loop_
_publ_author_name
'Rodriguez, V.'
'Couzi, M.'
'Tressaud, A.'
'Grannec, J.'
'Chaminade, J.P.'
'Soubeyroux, J.L.'
_cell_length_a 5.466(1)
_cell_length_b 5.466(1)
_cell_length_c 13.982(2)
_cell_angle_alpha 90.
_cell_angle_beta 90.
_cell_angle_gamma 120.
_cell_volume 361.78
_cell_formula_units_Z 3
_symmetry_space_group_name_H-M 'R -3 H'
_symmetry_Int_Tables_number 148
_refine_ls_R_factor_all 0.032
loop_
_symmetry_equiv_pos_site_id
_symmetry_equiv_pos_as_xyz
1 'x-y, x, -z'
2 'y, -x+y, -z'
3 '-x, -y, -z'
4 '-x+y, -x, z'
5 '-y, x-y, z'
6 'x, y, z'
7 'x-y+2/3, x+1/3, -z+1/3'
8 'y+2/3, -x+y+1/3, -z+1/3'
9 '-x+2/3, -y+1/3, -z+1/3'
10 '-x+y+2/3, -x+1/3, z+1/3'
11 '-y+2/3, x-y+1/3, z+1/3'
12 'x+2/3, y+1/3, z+1/3'
13 'x-y+1/3, x+2/3, -z+2/3'
14 'y+1/3, -x+y+2/3, -z+2/3'
15 '-x+1/3, -y+2/3, -z+2/3'
16 '-x+y+1/3, -x+2/3, z+2/3'
17 '-y+1/3, x-y+2/3, z+2/3'
18 'x+1/3, y+2/3, z+2/3'
loop_
_atom_type_symbol
_atom_type_oxidation_number
Co2+ 2
Zr4+ 4
F1- -1
loop_
_atom_site_label
_atom_site_type_symbol
_atom_site_symmetry_multiplicity
_atom_site_Wyckoff_symbol
_atom_site_fract_x
_atom_site_fract_y
_atom_site_fract_z
_atom_site_B_iso_or_equiv
_atom_site_occupancy
_atom_site_attached_hydrogens
Co1 Co2+ 3 a 0 0 0 0.10(5) 1. 0
Zr1 Zr4+ 3 b 0 0 0.5 0.10(5) 1. 0
F1 F1- 18 f 0.084(1) 0.333(1) 0.084(1) 0.75(5) 1. 0
#End of TTdata_83723-ICSD