
#(C) 2017 by FIZ Karlsruhe - Leibniz Institute for Information Infrastructure.  All rights reserved.
data_83907-ICSD
_database_code_ICSD 83907
_audit_creation_date 1999-01-19
_audit_update_record 2014-02-01
_chemical_name_systematic 'Lanthanum triantimonochromate(III)'
_chemical_formula_structural 'La (Cr Sb3)'
_chemical_formula_sum 'Cr1 La1 Sb3'
_chemical_name_structure_type LaCrSb3
_exptl_crystal_density_diffrn 7.32
_cell_measurement_temperature 295.
_publ_section_title

;
Crystal structures of La3 Zr Sb5, La3 Hf Sb3, and La Cr Sb3. Structural
relationships in rare-earth antimonides
;
loop_
_citation_id
_citation_journal_full
_citation_year
_citation_journal_volume
_citation_page_first
_citation_page_last
_citation_journal_id_ASTM
primary 'Journal of Alloys and Compounds' 1997 249 191 198 JALCEU
loop_
_publ_author_name
'Ferguson, M.J.'
'Hushagen, R.W.'
'Mar, A.'
_cell_length_a 13.2835(7)
_cell_length_b 6.2127(2)
_cell_length_c 6.116(1)
_cell_angle_alpha 90.
_cell_angle_beta 90.
_cell_angle_gamma 90.
_cell_volume 504.73
_cell_formula_units_Z 4
_symmetry_space_group_name_H-M 'P b c m'
_symmetry_Int_Tables_number 57
_refine_ls_R_factor_all 0.047
loop_
_symmetry_equiv_pos_site_id
_symmetry_equiv_pos_as_xyz
1 'x, -y+1/2, z+1/2'
2 '-x, y+1/2, z'
3 'x, y, -z+1/2'
4 '-x, -y, -z'
5 '-x, y+1/2, -z+1/2'
6 'x, -y+1/2, -z'
7 '-x, -y, z+1/2'
8 'x, y, z'
loop_
_atom_type_symbol
_atom_type_oxidation_number
La3+ 3
Cr3+ 3
Sb2- -2
loop_
_atom_site_label
_atom_site_type_symbol
_atom_site_symmetry_multiplicity
_atom_site_Wyckoff_symbol
_atom_site_fract_x
_atom_site_fract_y
_atom_site_fract_z
_atom_site_B_iso_or_equiv
_atom_site_occupancy
_atom_site_attached_hydrogens
La1 La3+ 4 d 0.3084(1) 0.0024(2) 0.25 0.0039(7) 1. 0
Cr1 Cr3+ 4 c 0.9095(4) 0.25 0 0.0104(12) 1. 0
Sb1 Sb2- 4 d 0.0628(1) 0.1064(3) 0.25 0.0094(8) 1. 0
Sb2 Sb2- 4 d 0.2159(2) 0.4989(2) 0.25 0.0063(7) 1. 0
Sb3 Sb2- 4 c 0.5011(1) 0.25 0 0.0053(7) 1. 0
#End of TTdata_83907-ICSD