
#(C) 2017 by FIZ Karlsruhe - Leibniz Institute for Information Infrastructure.  All rights reserved.
data_83965-ICSD
_database_code_ICSD 83965
_audit_creation_date 1999-01-19
_chemical_name_systematic 'Hafnium telluride (2/1)'
_chemical_formula_structural 'Hf2 Te'
_chemical_formula_sum 'Hf2 Te1'
_chemical_name_structure_type Nb2Se
_exptl_crystal_density_diffrn 11.39
_publ_section_title 'Synthesis and crystal structure of Hf2 Te'
loop_
_citation_id
_citation_journal_full
_citation_year
_citation_journal_volume
_citation_page_first
_citation_page_last
_citation_journal_id_ASTM
primary 'Journal of Alloys and Compounds' 1997 255 178 182 JALCEU
loop_
_publ_author_name
'Harbrecht, B.'
'Conrad, M.'
'Degen, T.'
'Herbertz, R.'
_cell_length_a 15.163(2)
_cell_length_b 3.7026(4)
_cell_length_c 10.064(1)
_cell_angle_alpha 90.
_cell_angle_beta 90.50(1)
_cell_angle_gamma 90.
_cell_volume 565.
_cell_formula_units_Z 8
_symmetry_space_group_name_H-M 'C 1 2/m 1'
_symmetry_Int_Tables_number 12
_refine_ls_R_factor_all 0.057
loop_
_symmetry_equiv_pos_site_id
_symmetry_equiv_pos_as_xyz
1 '-x, y, -z'
2 '-x, -y, -z'
3 'x, -y, z'
4 'x, y, z'
5 '-x+1/2, y+1/2, -z'
6 '-x+1/2, -y+1/2, -z'
7 'x+1/2, -y+1/2, z'
8 'x+1/2, y+1/2, z'
loop_
_atom_type_symbol
_atom_type_oxidation_number
Hf0+ 0
Te0+ 0
loop_
_atom_site_label
_atom_site_type_symbol
_atom_site_symmetry_multiplicity
_atom_site_Wyckoff_symbol
_atom_site_fract_x
_atom_site_fract_y
_atom_site_fract_z
_atom_site_B_iso_or_equiv
_atom_site_occupancy
_atom_site_attached_hydrogens
Hf1 Hf0+ 4 i 0.2215(7) 0 0.1311(9) 2.6(1) 1. 0
Hf2 Hf0+ 4 i 0.0834(7) 0 0.4139(8) 2.6(1) 1. 0
Hf3 Hf0+ 4 i 0.4086(5) 0 0.3438(7) 2.6(1) 1. 0
Hf4 Hf0+ 4 i 0.2610(9) 0 0.619(1) 2.6(1) 1. 0
Te1 Te0+ 4 i 0.1201(7) 0 0.875(1) 1.8(2) 1. 0
Te2 Te0+ 4 i 0.4288(8) 0 0.8134(9) 1.8(2) 1. 0
#End of TTdata_83965-ICSD