
#(C) 2017 by FIZ Karlsruhe - Leibniz Institute for Information Infrastructure.  All rights reserved.
data_84208-ICSD
_database_code_ICSD 84208
_audit_creation_date 1999-01-19
_chemical_name_systematic 'Rhenium germanide (3/7)'
_chemical_formula_structural 'Re3 Ge7'
_chemical_formula_sum 'Ge7 Re3'
_exptl_crystal_density_diffrn 11.06
_publ_section_title 'The crystal structure of Re3 Ge7'
loop_
_citation_id
_citation_journal_full
_citation_year
_citation_journal_volume
_citation_page_first
_citation_page_last
_citation_journal_id_ASTM
primary 'Journal of the Less-Common Metals' 1983 90 143 151 JCOMAH
loop_
_publ_author_name
'Siegrist, T.'
'Hulliger, F.'
'Petter, W.'
_cell_length_a 3.227(1)
_cell_length_b 9.045(41)
_cell_length_c 21.956(12)
_cell_angle_alpha 90.
_cell_angle_beta 90.
_cell_angle_gamma 90.
_cell_volume 640.86
_cell_formula_units_Z 4
_symmetry_space_group_name_H-M 'C m c m'
_symmetry_Int_Tables_number 63
_refine_ls_R_factor_all 0.108
loop_
_symmetry_equiv_pos_site_id
_symmetry_equiv_pos_as_xyz
1 '-x, y, -z+1/2'
2 '-x, -y, z+1/2'
3 '-x, y, z'
4 '-x, -y, -z'
5 'x, -y, z+1/2'
6 'x, y, -z+1/2'
7 'x, -y, -z'
8 'x, y, z'
9 '-x+1/2, y+1/2, -z+1/2'
10 '-x+1/2, -y+1/2, z+1/2'
11 '-x+1/2, y+1/2, z'
12 '-x+1/2, -y+1/2, -z'
13 'x+1/2, -y+1/2, z+1/2'
14 'x+1/2, y+1/2, -z+1/2'
15 'x+1/2, -y+1/2, -z'
16 'x+1/2, y+1/2, z'
loop_
_atom_type_symbol
_atom_type_oxidation_number
Re0+ 0
Ge0+ 0
loop_
_atom_site_label
_atom_site_type_symbol
_atom_site_symmetry_multiplicity
_atom_site_Wyckoff_symbol
_atom_site_fract_x
_atom_site_fract_y
_atom_site_fract_z
_atom_site_B_iso_or_equiv
_atom_site_occupancy
_atom_site_attached_hydrogens
Re1 Re0+ 8 f 0 0.074(1) 0.559(1) 0.5(2) 1. 0
Re2 Re0+ 4 c 0 0.480(1) 0.25 0.6(2) 1. 0
Ge1 Ge0+ 8 f 0 0.061(1) 0.163(1) 0.5(2) 1. 0
Ge2 Ge0+ 8 f 0 0.324(1) 0.137(1) 0.6(2) 1. 0
Ge3 Ge0+ 8 f 0 0.353(1) 0.532(1) 0.6(2) 1. 0
Ge4 Ge0+ 4 c 0 0.761(2) 0.25 1.0(3) 1. 0
#End of TTdata_84208-ICSD