
data_84217-ICSD
_database_code_ICSD 84217
_audit_creation_date 1999-01-19
_chemical_name_systematic 'Copper(I) iodide - beta'
_chemical_formula_structural 'Cu I'
_chemical_formula_sum 'Cu1 I1'
_exptl_crystal_density_diffrn 5.56
_cell_length_a 4.279(2)
_cell_length_b 4.279(2)
_cell_length_c 7.168(7)
_cell_angle_alpha 90.
_cell_angle_beta 90.
_cell_angle_gamma 120.
_cell_volume 113.66
_cell_formula_units_Z 2
_symmetry_space_group_name_H-M 'P 3 m 1'
_symmetry_Int_Tables_number 156
_refine_ls_R_factor_all 0.086
loop_
_symmetry_equiv_pos_site_id
_symmetry_equiv_pos_as_xyz
1 '-x+y, y, z'
2 'x, x-y, z'
3 '-y, -x, z'
4 '-x+y, -x, z'
5 '-y, x-y, z'
6 'x, y, z'
loop_
_atom_type_symbol
_atom_type_oxidation_number
I1- -1
Cu1+ 1
loop_
_atom_site_label
_atom_site_type_symbol
_atom_site_symmetry_multiplicity
_atom_site_Wyckoff_symbol
_atom_site_fract_x
_atom_site_fract_y
_atom_site_fract_z
_atom_site_B_iso_or_equiv
_atom_site_occupancy
_atom_site_attached_hydrogens
I1 I1- 1 a 0 0 0 4.1(6) 1. 0
I2 I1- 1 b 0.3333 0.6667 0.5 4.1(6) 1. 0
Cu1 Cu1+ 1 a 0 0 0.636(47) 15.10(21) 1. 0
Cu2 Cu1+ 1 b 0.3333 0.6667 0.896(47) 15.10(21) 1. 0
