
#(C) 2017 by FIZ Karlsruhe - Leibniz Institute for Information Infrastructure.  All rights reserved.
data_84619-ICSD
_database_code_ICSD 84619
_audit_creation_date 1999-01-19
_chemical_name_systematic 'Ruthenium(IV) oxide'
_chemical_formula_structural 'Ru O2'
_chemical_formula_sum 'O2 Ru1'
_chemical_name_structure_type CaCl2
_exptl_crystal_density_diffrn 7.18
_cell_measurement_temperature 298.
_cell_measurement_pressure 5300000.
_publ_section_title

;
Neutron diffraction study of the ambient-pressure, rutile-type and the
high-pressure, (Ca Cl2)-type phases of ruthenium dioxide
;
loop_
_citation_id
_citation_journal_full
_citation_year
_citation_journal_volume
_citation_page_first
_citation_page_last
_citation_journal_id_ASTM
primary 'Acta Crystallographica, Section B: Structural Science' 1997 53 880 884
ASBSDK
loop_
_publ_author_name
'Haines, J.'
'Leger, J.M.'
'Schulte, O.'
'Hull, S.'
_cell_length_a 4.4865(5)
_cell_length_b 4.4347(5)
_cell_length_c 3.0934(3)
_cell_angle_alpha 90.
_cell_angle_beta 90.
_cell_angle_gamma 90.
_cell_volume 61.55
_cell_formula_units_Z 2
_symmetry_space_group_name_H-M 'P n n m'
_symmetry_Int_Tables_number 58
_refine_ls_R_factor_all 0.085
loop_
_symmetry_equiv_pos_site_id
_symmetry_equiv_pos_as_xyz
1 'x+1/2, -y+1/2, z+1/2'
2 '-x+1/2, y+1/2, z+1/2'
3 'x, y, -z'
4 '-x, -y, -z'
5 '-x+1/2, y+1/2, -z+1/2'
6 'x+1/2, -y+1/2, -z+1/2'
7 '-x, -y, z'
8 'x, y, z'
loop_
_atom_type_symbol
_atom_type_oxidation_number
Ru4+ 4
O2- -2
loop_
_atom_site_label
_atom_site_type_symbol
_atom_site_symmetry_multiplicity
_atom_site_Wyckoff_symbol
_atom_site_fract_x
_atom_site_fract_y
_atom_site_fract_z
_atom_site_B_iso_or_equiv
_atom_site_occupancy
_atom_site_attached_hydrogens
Ru1 Ru4+ 2 a 0 0 0 . 1. 0
O1 O2- 4 g 0.3101(5) 0.3005(5) 0 . 1. 0
loop_
_atom_site_aniso_label
_atom_site_aniso_type_symbol
_atom_site_aniso_beta_11
_atom_site_aniso_beta_22
_atom_site_aniso_beta_33
_atom_site_aniso_beta_12
_atom_site_aniso_beta_13
_atom_site_aniso_beta_23
Ru1 Ru4+ 0.0030(8) 0.0028(8) 0.0007(5) 0.0013(5) 0 0
O1 O2- 0.0021(7) 0.0026(7) 0.0010(4) -.0020(4) 0 0
#End of TTdata_84619-ICSD