
#(C) 2017 by FIZ Karlsruhe - Leibniz Institute for Information Infrastructure.  All rights reserved.
data_84866-ICSD
_database_code_ICSD 84866
_audit_creation_date 1999-01-19
_chemical_name_systematic 'Antimony chromium selenide'
_chemical_formula_structural 'Sb Cr Se3'
_chemical_formula_sum 'Cr1 Sb1 Se3'
_chemical_name_structure_type NH4CdCl3/Sn2S3
_exptl_crystal_density_diffrn 5.82
_publ_section_title

;
HREM image analysis up to structure determination of Sb Cr Se3: a new 1D
ferromagnet
;
loop_
_citation_id
_citation_journal_full
_citation_year
_citation_journal_volume
_citation_page_first
_citation_page_last
_citation_journal_id_ASTM
primary 'Journal of Solid State Chemistry' 1997 132 257 266 JSSCBI
loop_
_publ_author_name
'Volkov, V.V.'
'van Tendeloo, G.'
'van Landuyt, J.'
'Amelinckx, S.'
'Busheva, E.E.'
'Shabunina, G.G.'
'Aminov, T.G.'
'Novotortsev, V.M.'
_cell_length_a 9.1689(29)
_cell_length_b 3.7957(12)
_cell_length_c 13.4637(44)
_cell_angle_alpha 90.
_cell_angle_beta 90.
_cell_angle_gamma 90.
_cell_volume 468.57
_cell_formula_units_Z 4
_symmetry_space_group_name_H-M 'P n m a'
_symmetry_Int_Tables_number 62
_refine_ls_R_factor_all 0.029
loop_
_symmetry_equiv_pos_site_id
_symmetry_equiv_pos_as_xyz
1 'x+1/2, y, -z+1/2'
2 'x, -y+1/2, z'
3 '-x+1/2, y+1/2, z+1/2'
4 '-x, -y, -z'
5 '-x+1/2, -y, z+1/2'
6 '-x, y+1/2, -z'
7 'x+1/2, -y+1/2, -z+1/2'
8 'x, y, z'
loop_
_atom_type_symbol
_atom_type_oxidation_number
Sb3+ 3
Cr3+ 3
Se2- -2
loop_
_atom_site_label
_atom_site_type_symbol
_atom_site_symmetry_multiplicity
_atom_site_Wyckoff_symbol
_atom_site_fract_x
_atom_site_fract_y
_atom_site_fract_z
_atom_site_B_iso_or_equiv
_atom_site_occupancy
_atom_site_attached_hydrogens
Sb1 Sb3+ 4 c 0.46983(30) 0.25 0.65979(23) 0.7(1) 1. 0
Cr1 Cr3+ 4 c 0.15830(81) 0.75 0.54461(56) 0.3(1) 1. 0
Se1 Se2- 4 c 0.28344(37) 0.75 0.71183(36) 0.4(1) 1. 0
Se2 Se2- 4 c 0.00038(46) 0.25 0.61004(31) 0.4(1) 1. 0
Se3 Se2- 4 c 0.32896(50) 0.25 0.48437(28) 0.4(1) 1. 0
#End of TTdata_84866-ICSD