
data_85282-ICSD
_database_code_ICSD 85282
_audit_creation_date 1999-06-02
_chemical_name_systematic 'Yttrium nickel boride carbide (3/4/4/3)'
_chemical_formula_structural 'Y3 Ni4 B4 C3'
_chemical_formula_sum 'C3 B4 Ni4 Y3'
_exptl_crystal_density_diffrn 5.96
_cell_length_a 3.55190(7)
_cell_length_b 3.55190(7)
_cell_length_c 25.64539(70)
_cell_angle_alpha 90.
_cell_angle_beta 90.
_cell_angle_gamma 90.
_cell_volume 323.54
_cell_formula_units_Z 2
_symmetry_space_group_name_H-M 'I 4'
_symmetry_Int_Tables_number 79
_refine_ls_R_factor_all 0.049
loop_
_symmetry_equiv_pos_site_id
_symmetry_equiv_pos_as_xyz
1 'y, -x, z'
2 '-y, x, z'
3 '-x, -y, z'
4 'x, y, z'
5 'y+1/2, -x+1/2, z+1/2'
6 '-y+1/2, x+1/2, z+1/2'
7 '-x+1/2, -y+1/2, z+1/2'
8 'x+1/2, y+1/2, z+1/2'
loop_
_atom_type_symbol
_atom_type_oxidation_number
Y0+ 0
Ni0+ 0
B0+ 0
C0+ 0
loop_
_atom_site_label
_atom_site_type_symbol
_atom_site_symmetry_multiplicity
_atom_site_Wyckoff_symbol
_atom_site_fract_x
_atom_site_fract_y
_atom_site_fract_z
_atom_site_B_iso_or_equiv
_atom_site_occupancy
_atom_site_attached_hydrogens
Y1 Y0+ 2 a 0 0 0.104(6) 0.45 1. 0
Y2 Y0+ 2 a 0 0 0.4032(18) 0.3 1. 0
Y3 Y0+ 2 a 0 0 0.804(3) 0.3 1. 0
Ni1 Ni0+ 4 b 0 0.5 0.004(4) 0.345 1. 0
Ni2 Ni0+ 4 b 0 0.5 0.208(3) 0.345 1. 0
B1 B0+ 2 a 0 0 0.255(5) 0.6 1. 0
B2 B0+ 2 a 0 0 0.547(8) 0.6 1. 0
B3 B0+ 2 a 0 0 0.661(11) 0.6 1. 0
B4 B0+ 2 a 0 0 0.953(8) 0.6 1. 0
C1 C0+ 2 a 0 0 0.305(4) 0.6 1. 0
C2 C0+ 2 a 0 0 0.604(6) 0.6 1. 0
C3 C0+ 2 a 0 0 0.902(7) 0.6 1. 0
