
#(C) 2017 by FIZ Karlsruhe - Leibniz Institute for Information Infrastructure.  All rights reserved.
data_85301-ICSD
_database_code_ICSD 85301
_audit_creation_date 1999-06-02
_audit_update_record 2006-04-01
_chemical_name_systematic 'Antimony sulfide iodide - I'
_chemical_formula_structural 'Sb S I'
_chemical_formula_sum 'I1 S1 Sb1'
_chemical_name_structure_type PbCl2
_exptl_crystal_density_diffrn 5.2
_cell_measurement_temperature 348.
_publ_section_title

;
Crystal structure and phase transitions of the ferroelectric antimony
sulfoiodide Sb S I. Part II. Crystal structure of Sb S I in phases I, II and
III
;
loop_
_citation_id
_citation_journal_full
_citation_year
_citation_journal_volume
_citation_page_first
_citation_page_last
_citation_journal_id_ASTM
primary 'Polish Journal of Chemistry' 1997 71 1852 1857 PJCHDQ
loop_
_publ_author_name
'Lukaszewicz, K.'
'Pietraszko, A.'
'Stepen' Damm, Yu.'
'Kajokas, A.'
_cell_length_a 8.566(3)
_cell_length_b 10.186(4)
_cell_length_c 4.111(2)
_cell_angle_alpha 90.
_cell_angle_beta 90.
_cell_angle_gamma 90.
_cell_volume 358.7
_cell_formula_units_Z 4
_symmetry_space_group_name_H-M 'P n a m'
_symmetry_Int_Tables_number 62
_refine_ls_R_factor_all 0.032
loop_
_symmetry_equiv_pos_site_id
_symmetry_equiv_pos_as_xyz
1 'x+1/2, -y+1/2, z'
2 'x, y, -z+1/2'
3 '-x+1/2, y+1/2, z+1/2'
4 '-x, -y, -z'
5 '-x+1/2, y+1/2, -z'
6 '-x, -y, z+1/2'
7 'x+1/2, -y+1/2, -z+1/2'
8 'x, y, z'
loop_
_atom_type_symbol
_atom_type_oxidation_number
Sb3+ 3
S2- -2
I1- -1
loop_
_atom_site_label
_atom_site_type_symbol
_atom_site_symmetry_multiplicity
_atom_site_Wyckoff_symbol
_atom_site_fract_x
_atom_site_fract_y
_atom_site_fract_z
_atom_site_B_iso_or_equiv
_atom_site_occupancy
_atom_site_attached_hydrogens
Sb1 Sb3+ 4 c 0.61827(4) 0.37681(4) 0.25 0.03719(10) 1. 0
S1 S2- 4 c 0.65414(14) 0.54668(12) 0.75 0.0265(2) 1. 0
I1 I1- 4 c 0.49151(4) 0.17204(3) 0.75 0.03247(8) 1. 0
#End of TTdata_85301-ICSD