
#(C) 2017 by FIZ Karlsruhe - Leibniz Institute for Information Infrastructure.  All rights reserved.
data_85305-ICSD
_database_code_ICSD 85305
_audit_creation_date 1999-06-02
_audit_update_record 2014-08-01
_chemical_name_systematic 'Lithium silver silicide (3/2/3)'
_chemical_formula_structural 'Li3 Ag2 Si3'
_chemical_formula_sum 'Ag2 Li3 Si3'
_chemical_name_structure_type Li3Ag2Si3
_exptl_crystal_density_diffrn 4.71
_publ_section_title
'X-ray investigations of the Li - Ag - (Si, Ge) systems at 470 K'
loop_
_citation_id
_citation_journal_full
_citation_year
_citation_journal_volume
_citation_page_first
_citation_page_last
_citation_journal_id_ASTM
primary 'Polish Journal of Chemistry' 1997 71 712 715 PJCHDQ
loop_
_publ_author_name
'Kevorkov, D.G.'
'Pavlyuk, V.V.'
'Bodak, O.I.'
_cell_length_a 6.055(3)
_cell_length_b 6.055(3)
_cell_length_c 6.164(3)
_cell_angle_alpha 90.
_cell_angle_beta 90.
_cell_angle_gamma 90.
_cell_volume 225.99
_cell_formula_units_Z 2
_symmetry_space_group_name_H-M 'P 42/n n m Z'
_symmetry_Int_Tables_number 134
loop_
_symmetry_equiv_pos_site_id
_symmetry_equiv_pos_as_xyz
1 'y, x, -z'
2 'y+1/2, -x, -z+1/2'
3 '-y, x+1/2, -z+1/2'
4 '-y+1/2, -x+1/2, -z'
5 '-y, -x, z'
6 '-y+1/2, x, z+1/2'
7 'y, -x+1/2, z+1/2'
8 'y+1/2, x+1/2, z'
9 'x+1/2, y+1/2, -z'
10 '-x+1/2, y, -z+1/2'
11 'x, -y+1/2, -z+1/2'
12 '-x, -y, -z'
13 '-x+1/2, -y+1/2, z'
14 'x+1/2, -y, z+1/2'
15 '-x, y+1/2, z+1/2'
16 'x, y, z'
loop_
_atom_type_symbol
_atom_type_oxidation_number
Ag0+ 0
Li0+ 0
Si0+ 0
loop_
_atom_site_label
_atom_site_type_symbol
_atom_site_symmetry_multiplicity
_atom_site_Wyckoff_symbol
_atom_site_fract_x
_atom_site_fract_y
_atom_site_fract_z
_atom_site_B_iso_or_equiv
_atom_site_occupancy
_atom_site_attached_hydrogens
Ag1 Ag0+ 4 f 0 0 0 . 1. 0
Li1 Li0+ 4 e 0 0 0.5 . 1. 0
Li2 Li0+ 2 b 0.75 0.25 0.25 . 1. 0
Si1 Si0+ 4 c 0.25 0.25 0.25 . 1. 0
Si2 Si0+ 2 a 0.25 0.75 0.25 . 1. 0
#End of TTdata_85305-ICSD