
#(C) 2017 by FIZ Karlsruhe - Leibniz Institute for Information Infrastructure.  All rights reserved.
data_85406-ICSD
_database_code_ICSD 85406
_audit_creation_date 1999-06-02
_audit_update_record 2015-02-01
_chemical_name_systematic 'Strontium nickel phosphide (1/2/2) - NT'
_chemical_formula_structural 'Sr Ni2 P2'
_chemical_formula_sum 'Ni2 P2 Sr1'
_chemical_name_structure_type Ni2SrP2
_exptl_crystal_density_diffrn 5.44
_cell_measurement_temperature 298.
_publ_section_title
'Zur Polymorphie von Sr Ni2 P2 sowie zur Kristallstruktur von Ba Ni2 P2'
loop_
_citation_id
_citation_journal_full
_citation_year
_citation_journal_volume
_citation_page_first
_citation_page_last
_citation_journal_id_ASTM
primary 'Zeitschrift fuer Anorganische und Allgemeine Chemie (1950) (DE)' 1997
623 1699 1704 ZAACAB
loop_
_publ_author_name
'Keimes, V.'
'Johrendt, D.'
'Mewis, A.'
'Huhnt, C.'
'Schlabitz, W.'
_cell_length_a 3.951(2)
_cell_length_b 11.853(2)
_cell_length_c 10.432(2)
_cell_angle_alpha 90.
_cell_angle_beta 90.
_cell_angle_gamma 90.
_cell_volume 488.54
_cell_formula_units_Z 6
_symmetry_space_group_name_H-M 'I m m m'
_symmetry_Int_Tables_number 71
_refine_ls_R_factor_all 0.074
loop_
_symmetry_equiv_pos_site_id
_symmetry_equiv_pos_as_xyz
1 'x, y, -z'
2 'x, -y, z'
3 '-x, y, z'
4 '-x, -y, -z'
5 '-x, -y, z'
6 '-x, y, -z'
7 'x, -y, -z'
8 'x, y, z'
9 'x+1/2, y+1/2, -z+1/2'
10 'x+1/2, -y+1/2, z+1/2'
11 '-x+1/2, y+1/2, z+1/2'
12 '-x+1/2, -y+1/2, -z+1/2'
13 '-x+1/2, -y+1/2, z+1/2'
14 '-x+1/2, y+1/2, -z+1/2'
15 'x+1/2, -y+1/2, -z+1/2'
16 'x+1/2, y+1/2, z+1/2'
loop_
_atom_type_symbol
_atom_type_oxidation_number
Sr0+ 0
Ni0+ 0
P0+ 0
loop_
_atom_site_label
_atom_site_type_symbol
_atom_site_symmetry_multiplicity
_atom_site_Wyckoff_symbol
_atom_site_fract_x
_atom_site_fract_y
_atom_site_fract_z
_atom_site_B_iso_or_equiv
_atom_site_occupancy
_atom_site_attached_hydrogens
Sr1 Sr0+ 2 a 0 0 0 0.0109(5) 1. 0
Sr2 Sr0+ 4 g 0 0.3177(1) 0 0.0094(3) 1. 0
Ni1 Ni0+ 8 l 0 0.1576(1) 0.2597(2) 0.0147(4) 1. 0
Ni2 Ni0+ 4 j 0.5 0 0.2698(3) 0.0119(5) 1. 0
P1 P0+ 4 i 0 0 0.3825(5) 0.011(1) 1. 0
P2 P0+ 8 l 0 0.3358(2) 0.3427(3) 0.0121(6) 1. 0
#End of TTdata_85406-ICSD