
#(C) 2017 by FIZ Karlsruhe - Leibniz Institute for Information Infrastructure.  All rights reserved.
data_85529-ICSD
_database_code_ICSD 85529
_audit_creation_date 1999-06-02
_audit_update_record 2005-10-01
_chemical_name_systematic 'Magnesium silicide (5/6)'
_chemical_formula_structural 'Mg5 Si6'
_chemical_formula_sum 'Mg5 Si6'
_chemical_name_structure_type Ho4Ni2InGe4
_exptl_crystal_density_diffrn 2.41
_publ_section_title
'The crystal structure of the beta" phase in Al - Mg - Si alloys'
loop_
_citation_id
_citation_journal_full
_citation_year
_citation_journal_volume
_citation_page_first
_citation_page_last
_citation_journal_id_ASTM
primary 'Acta Materialia' 1998 46 3283 3298 ACMAFD
loop_
_publ_author_name
'Andersen, S.J.'
'Zandbergen, H.W.'
'Jansen, J.'
'Traeholt, C.'
'Tundal, U.'
'Reiso, O.'
_cell_length_a 15.16(2)
_cell_length_b 4.05
_cell_length_c 6.74(2)
_cell_angle_alpha 90.
_cell_angle_beta 105.3(5)
_cell_angle_gamma 90.
_cell_volume 399.16
_cell_formula_units_Z 2
_symmetry_space_group_name_H-M 'C 1 2/m 1'
_symmetry_Int_Tables_number 12
_refine_ls_R_factor_all 0.031
loop_
_symmetry_equiv_pos_site_id
_symmetry_equiv_pos_as_xyz
1 '-x, y, -z'
2 '-x, -y, -z'
3 'x, -y, z'
4 'x, y, z'
5 '-x+1/2, y+1/2, -z'
6 '-x+1/2, -y+1/2, -z'
7 'x+1/2, -y+1/2, z'
8 'x+1/2, y+1/2, z'
loop_
_atom_type_symbol
_atom_type_oxidation_number
Mg0+ 0
Si0+ 0
loop_
_atom_site_label
_atom_site_type_symbol
_atom_site_symmetry_multiplicity
_atom_site_Wyckoff_symbol
_atom_site_fract_x
_atom_site_fract_y
_atom_site_fract_z
_atom_site_B_iso_or_equiv
_atom_site_occupancy
_atom_site_attached_hydrogens
Mg1 Mg0+ 2 a 0 0 0 0.5(2) 1. 0
Mg2 Mg0+ 4 i 0.3459(8) 0 0.089(2) 1.0(2) 1. 0
Mg3 Mg0+ 4 i 0.430(1) 0 0.652(3) 0.8(2) 1. 0
Si1 Si0+ 4 i 0.0565(7) 0 0.649(2) 1.1(2) 1. 0
Si2 Si0+ 4 i 0.1885(8) 0 0.200(7) 0.5(2) 1. 0
Si3 Si0+ 4 i 0.2171(9) 0 0.617(2) 2.5(4) 1. 0
#End of TTdata_85529-ICSD