
#(C) 2017 by FIZ Karlsruhe - Leibniz Institute for Information Infrastructure.  All rights reserved.
data_85609-ICSD
_database_code_ICSD 85609
_audit_creation_date 1999-11-30
_audit_update_record 2008-02-01
_chemical_name_systematic 'Aquatungsten dioxide peroxide'
_chemical_formula_structural '((W (H2 O)) O2 (O2))'
_chemical_formula_sum 'H2 O5 W1'
_exptl_crystal_density_diffrn 5.28
_publ_section_title
'Structure of hydrated tungsten peroxides (W O2 (O2) H2 O) . n(H2 O)'
loop_
_citation_id
_citation_journal_full
_citation_year
_citation_journal_volume
_citation_page_first
_citation_page_last
_citation_journal_id_ASTM
primary 'Chemistry of Materials' 1998 10 1882 1888 CMATEX
loop_
_publ_author_name
'Pecquenard, B.'
'Castro-Garcia, S.'
'Livage, J.'
'Zavalii, P.Yu.'
'Whittingham, M.S.'
'Thouvenot, R.'
_cell_length_a 12.0710(8)
_cell_length_b 3.8643(2)
_cell_length_c 12.6568(9)
_cell_angle_alpha 90.
_cell_angle_beta 145.470(3)
_cell_angle_gamma 90.
_cell_volume 334.65
_cell_formula_units_Z 4
_symmetry_space_group_name_H-M 'P 1 21/c 1'
_symmetry_Int_Tables_number 14
_refine_ls_R_factor_all 0.045
loop_
_symmetry_equiv_pos_site_id
_symmetry_equiv_pos_as_xyz
1 'x, -y+1/2, z+1/2'
2 '-x, -y, -z'
3 '-x, y+1/2, -z+1/2'
4 'x, y, z'
loop_
_atom_type_symbol
_atom_type_oxidation_number
W6+ 6
O2- -2
O1- -1
O2- -2
H1+ 1
loop_
_atom_site_label
_atom_site_type_symbol
_atom_site_symmetry_multiplicity
_atom_site_Wyckoff_symbol
_atom_site_fract_x
_atom_site_fract_y
_atom_site_fract_z
_atom_site_B_iso_or_equiv
_atom_site_occupancy
_atom_site_attached_hydrogens
W1 W6+ 4 e 0.1831(4) 0.0670(6) 0.3629(4) 0.025(1) 1. 0
O1 O2- 4 e 0.167(4) 0.079(6) 0.221(3) 0.04(4) 1. 0
O2 O2- 4 e 0.129(4) 0.562(6) 0.336(3) 0.04(4) 1. 0
O3 O1- 4 e 0.461(4) 0.256(6) 0.600(4) 0.04(4) 1. 0
O4 O1- 4 e 0.432(4) 0.894(7) 0.569(3) 0.04(4) 1. 0
O5 O2- 4 e 0.204(2) 0.031(5) 0.565(2) 0.04(4) 1. 0
#End of TTdata_85609-ICSD