
data_85782-ICSD
_database_code_ICSD 85782
_audit_creation_date 1999-11-30
_audit_update_record 2013-08-01
_chemical_name_systematic 'Gold cyanide'
_chemical_formula_structural 'Au (C N)'
_chemical_formula_sum 'C1 Au1 N1'
_chemical_name_structure_type AuCN
_exptl_crystal_density_diffrn 7.28
_cell_length_a 3.396(2)
_cell_length_b 3.396(2)
_cell_length_c 5.092(2)
_cell_angle_alpha 90.
_cell_angle_beta 90.
_cell_angle_gamma 120.
_cell_volume 50.86
_cell_formula_units_Z 1
_symmetry_space_group_name_H-M 'P 6 m m'
_symmetry_Int_Tables_number 183
_refine_ls_R_factor_all 0.01
loop_
_symmetry_equiv_pos_site_id
_symmetry_equiv_pos_as_xyz
1 '-x, -x+y, z'
2 'x-y, -y, z'
3 'y, x, z'
4 'x, x-y, z'
5 '-x+y, y, z'
6 '-y, -x, z'
7 'x-y, x, z'
8 'y, -x+y, z'
9 '-x, -y, z'
10 '-x+y, -x, z'
11 '-y, x-y, z'
12 'x, y, z'
loop_
_atom_type_symbol
_atom_type_oxidation_number
Au1+ 1
C2+ 2
N3- -3
loop_
_atom_site_label
_atom_site_type_symbol
_atom_site_symmetry_multiplicity
_atom_site_Wyckoff_symbol
_atom_site_fract_x
_atom_site_fract_y
_atom_site_fract_z
_atom_site_B_iso_or_equiv
_atom_site_occupancy
_atom_site_attached_hydrogens
Au1 Au1+ 1 a 0 0 0 3.0(3) 1. 0
C1 C2+ 1 a 0 0 0.404(5) 0.3(2) 1. 0
N1 N3- 1 a 0 0 0.642(5) 3.9(3) 1. 0
