
#(C) 2017 by FIZ Karlsruhe - Leibniz Institute for Information Infrastructure.  All rights reserved.
data_863-ICSD
_database_code_ICSD 863
_audit_creation_date 1980-01-01
_audit_update_record 2011-02-01
_chemical_name_systematic 'Dipotassium phyllo-trithiotetraargentate'
_chemical_formula_structural 'K2 (Ag4 S3)'
_chemical_formula_sum 'Ag4 K2 S3'
_chemical_name_structure_type Ag4K2S3
_exptl_crystal_density_diffrn 4.9
_publ_section_title 'K2 Ag4 S3 und Rb2 Ag4 S3, Synthese und Struktur'
loop_
_citation_id
_citation_journal_full
_citation_year
_citation_journal_volume
_citation_page_first
_citation_page_last
_citation_journal_id_ASTM
primary 'Zeitschrift fuer Anorganische und Allgemeine Chemie (1950) (DE)' 1976
425 109 116 ZAACAB
loop_
_publ_author_name
'Bronger, W.'
'Burschka, C.'
_cell_length_a 17.36(1)
_cell_length_b 4.296(2)
_cell_length_c 11.603(5)
_cell_angle_alpha 90.
_cell_angle_beta 108.32(3)
_cell_angle_gamma 90.
_cell_volume 821.48
_cell_formula_units_Z 4
_symmetry_space_group_name_H-M 'C 1 2/m 1'
_symmetry_Int_Tables_number 12
_refine_ls_R_factor_all 0.12
loop_
_symmetry_equiv_pos_site_id
_symmetry_equiv_pos_as_xyz
1 '-x, y, -z'
2 '-x, -y, -z'
3 'x, -y, z'
4 'x, y, z'
5 '-x+1/2, y+1/2, -z'
6 '-x+1/2, -y+1/2, -z'
7 'x+1/2, -y+1/2, z'
8 'x+1/2, y+1/2, z'
loop_
_atom_type_symbol
_atom_type_oxidation_number
K1+ 1
Ag1+ 1
S2- -2
loop_
_atom_site_label
_atom_site_type_symbol
_atom_site_symmetry_multiplicity
_atom_site_Wyckoff_symbol
_atom_site_fract_x
_atom_site_fract_y
_atom_site_fract_z
_atom_site_B_iso_or_equiv
_atom_site_occupancy
_atom_site_attached_hydrogens
K1 K1+ 4 i 0.332(1) 0 0.160(1) . 1. 0
K2 K1+ 4 i 0.187(2) 0 0.342(1) . 1. 0
Ag1 Ag1+ 4 i 0.0106(3) 0 0.8782(4) . 1. 0
Ag2 Ag1+ 4 i 0.0204(3) 0 0.6334(4) . 1. 0
Ag3 Ag1+ 4 i 0.5945(4) 0 0.0916(5) . 1. 0
Ag4 Ag1+ 4 i 0.5946(3) 0 0.5129(4) . 1. 0
S1 S2- 4 i 0.145(1) 0 0.042(1) . 1. 0
S2 S2- 4 i 0.160(1) 0 0.613(2) . 1. 0
S3 S2- 4 i 0.466(1) 0 0.720(1) . 1. 0
loop_
_atom_site_aniso_label
_atom_site_aniso_type_symbol
_atom_site_aniso_U_11
_atom_site_aniso_U_22
_atom_site_aniso_U_33
_atom_site_aniso_U_12
_atom_site_aniso_U_13
_atom_site_aniso_U_23
K1 K1+ 0.020(5) 0 0.024(6) 0 0.002(4) 0
K2 K1+ 0.014(5) 0 0.025(6) 0 -0.003(4) 0
Ag1 Ag1+ 0.032(2) 0 0.026(2) 0 0.002(2) 0
Ag2 Ag1+ 0.029(2) 0 0.028(2) 0 0.007(2) 0
Ag3 Ag1+ 0.051(3) 0 0.037(3) 0 0.008(2) 0
Ag4 Ag1+ 0.038(2) 0 0.026(2) 0 0.008(2) 0
S1 S2- 0.025(6) 0 0.023(6) 0 0.002(5) 0
S2 S2- 0.026(6) 0 0.027(7) 0 0.003(5) 0
S3 S2- 0.033(7) 0 0.018(6) 0 0.011(5) 0
#End of TTdata_863-ICSD