
#(C) 2017 by FIZ Karlsruhe - Leibniz Institute for Information Infrastructure.  All rights reserved.
data_87128-ICSD
_database_code_ICSD 87128
_audit_creation_date 2000-07-15
_chemical_name_systematic 'Iron carbide (2/1) - eta'
_chemical_formula_structural 'Fe2 C'
_chemical_formula_sum 'C1 Fe2'
_chemical_name_structure_type Fe2C
_exptl_crystal_density_diffrn 7.15
_publ_section_title

;
Crystal structure and morphology of the carbide precipitated from martensitic
high carbon steel during the first stage of tempering
;
loop_
_citation_id
_citation_journal_full
_citation_year
_citation_journal_volume
_citation_page_first
_citation_page_last
_citation_journal_id_ASTM
primary 'Acta Metallurgica' 1972 20 645 655 AMETAR
loop_
_publ_author_name
'Hirotsu, Y.'
'Nagakura, S.'
_cell_length_a 4.704(16)
_cell_length_b 4.318(5)
_cell_length_c 2.830(6)
_cell_angle_alpha 90.
_cell_angle_beta 90.
_cell_angle_gamma 90.
_cell_volume 57.48
_cell_formula_units_Z 2
_symmetry_space_group_name_H-M 'P n n m'
_symmetry_Int_Tables_number 58
loop_
_symmetry_equiv_pos_site_id
_symmetry_equiv_pos_as_xyz
1 'x+1/2, -y+1/2, z+1/2'
2 '-x+1/2, y+1/2, z+1/2'
3 'x, y, -z'
4 '-x, -y, -z'
5 '-x+1/2, y+1/2, -z+1/2'
6 'x+1/2, -y+1/2, -z+1/2'
7 '-x, -y, z'
8 'x, y, z'
loop_
_atom_type_symbol
_atom_type_oxidation_number
Fe0+ 0
C0+ 0
loop_
_atom_site_label
_atom_site_type_symbol
_atom_site_symmetry_multiplicity
_atom_site_Wyckoff_symbol
_atom_site_fract_x
_atom_site_fract_y
_atom_site_fract_z
_atom_site_B_iso_or_equiv
_atom_site_occupancy
_atom_site_attached_hydrogens
Fe1 Fe0+ 4 g 0.6667 0.25 0 . 1. 0
C1 C0+ 2 a 0 0 0 . 1. 0
#End of TTdata_87128-ICSD