
#(C) 2017 by FIZ Karlsruhe - Leibniz Institute for Information Infrastructure.  All rights reserved.
data_87549-ICSD
_database_code_ICSD 87549
_audit_creation_date 2000-12-16
_audit_update_record 2003-04-01
_chemical_name_systematic
'Potassium dimanganese bis(chromate) hydroxide hydrate'
_chemical_formula_structural 'K Mn2 (Cr O4)2 (O H) (H2 O)'
_chemical_formula_sum 'H3 Cr2 K1 Mn2 O10'
_chemical_name_structure_type NaCu2OH(SO4)2H2O
_exptl_crystal_density_diffrn 3.2
_publ_section_title

;
Synthesis and crystal structure of the basic potassium manganese chromate K
Mn2 (Cr O4)2 O H . (H2 O)
;
loop_
_citation_id
_citation_journal_full
_citation_year
_citation_journal_volume
_citation_page_first
_citation_page_last
_citation_journal_id_ASTM
primary 'Latvijas Kimijas Zurnals, Neorganika Kimija' 1998 1998 68 71 LKZUE8
loop_
_publ_author_name
'Ronis, J.'
'Krumina, A.'
'Ozolins, G.'
'Millers, T.'
_cell_length_a 9.346(1)
_cell_length_b 6.561(1)
_cell_length_c 7.762(1)
_cell_angle_alpha 90.
_cell_angle_beta 114.97(1)
_cell_angle_gamma 90.
_cell_volume 431.47
_cell_formula_units_Z 2
_symmetry_space_group_name_H-M 'C 1 2/m 1'
_symmetry_Int_Tables_number 12
_refine_ls_R_factor_all 0.086
loop_
_symmetry_equiv_pos_site_id
_symmetry_equiv_pos_as_xyz
1 '-x, y, -z'
2 '-x, -y, -z'
3 'x, -y, z'
4 'x, y, z'
5 '-x+1/2, y+1/2, -z'
6 '-x+1/2, -y+1/2, -z'
7 'x+1/2, -y+1/2, z'
8 'x+1/2, y+1/2, z'
loop_
_atom_type_symbol
_atom_type_oxidation_number
Cr6+ 6
O2- -2
Mn2+ 2
K1+ 1
H1+ 1
loop_
_atom_site_label
_atom_site_type_symbol
_atom_site_symmetry_multiplicity
_atom_site_Wyckoff_symbol
_atom_site_fract_x
_atom_site_fract_y
_atom_site_fract_z
_atom_site_B_iso_or_equiv
_atom_site_occupancy
_atom_site_attached_hydrogens
Cr1 Cr6+ 4 i 0.0857(7) 0 0.2897(7) 1.01(16) 1. 0
O1 O2- 4 i 0.1990(15) 0 0.1568(19) 1.92(39) 1. 0
O2 O2- 4 i 0.2094(14) 0 0.5164(17) 1.93(43) 1. 0
O3 O2- 8 j 0.9781(8) 0.2092(11) 0.2410(11) 0.34(26) 1. 0
O4 O2- 4 i 0.1434(9) 0.5 0.0946(16) 0.41(34) 1. 0
Mn1 Mn2+ 4 e 0.25 0.25 0 1.23(13) 1. 0
K1 K1+ 2 d 0 0.5 0.5 1.31(25) 1. 0
#End of TTdata_87549-ICSD