
#(C) 2017 by FIZ Karlsruhe - Leibniz Institute for Information Infrastructure.  All rights reserved.
data_88032-ICSD
_database_code_ICSD 88032
_audit_creation_date 2001-07-16
_audit_update_record 2003-10-01
_chemical_name_systematic 'Chlorocopper lanthanum diniobate'
_chemical_formula_structural '(Cu Cl) La (Nb2 O7)'
_chemical_formula_sum 'Cl1 Cu1 La1 Nb2 O7'
_chemical_name_structure_type CuBrLa(Nb2O7)
_exptl_crystal_density_diffrn 5.04
_publ_section_title

;
Assembly of metal-anion arrays within a perovskite host. Low-temperature
synthesis of new layered copper-oxyhalides, (Cu X) La Nb2 O7, X = Cl, Br
;
loop_
_citation_id
_citation_journal_full
_citation_year
_citation_journal_volume
_citation_page_first
_citation_page_last
_citation_journal_id_ASTM
primary 'Journal of the American Chemical Society' 1999 121 10743 10746 JACSAT
loop_
_publ_author_name
'Kodenkandath, T.A.'
'Lalena, J.N.'
'Zhou, W.-L.'
'Carpenter, E.E.'
'Sangregorio, C.'
'Falster, A.U.'
'Simmons, W.B.jr.'
'O'Connor, C.J.'
'Wiley, J.B.'
_cell_length_a 3.8792(1)
_cell_length_b 3.8792(1)
_cell_length_c 11.7282(3)
_cell_angle_alpha 90.
_cell_angle_beta 90.
_cell_angle_gamma 90.
_cell_volume 176.49
_cell_formula_units_Z 1
_symmetry_space_group_name_H-M 'P 4/m m m'
_symmetry_Int_Tables_number 123
_refine_ls_R_factor_all 0.069
loop_
_symmetry_equiv_pos_site_id
_symmetry_equiv_pos_as_xyz
1 'y, x, -z'
2 '-y, -x, -z'
3 '-y, x, -z'
4 'y, -x, -z'
5 '-x, y, -z'
6 'x, -y, -z'
7 'x, y, -z'
8 '-x, -y, -z'
9 '-y, -x, z'
10 'y, x, z'
11 'y, -x, z'
12 '-y, x, z'
13 'x, -y, z'
14 '-x, y, z'
15 '-x, -y, z'
16 'x, y, z'
loop_
_atom_type_symbol
_atom_type_oxidation_number
Cu2+ 2
Cl1- -1
La3+ 3
Nb5+ 5
O2- -2
loop_
_atom_site_label
_atom_site_type_symbol
_atom_site_symmetry_multiplicity
_atom_site_Wyckoff_symbol
_atom_site_fract_x
_atom_site_fract_y
_atom_site_fract_z
_atom_site_B_iso_or_equiv
_atom_site_occupancy
_atom_site_attached_hydrogens
Cu1 Cu2+ 1 d 0.5 0.5 0.5 0.011(1) 1. 0
Cl1 Cl1- 1 b 0 0 0.5 0.133(6) 1. 0
La1 La3+ 1 a 0 0 0 0.0017(6) 1. 0
Nb1 Nb5+ 2 h 0.5 0.5 0.1908(1) 0.0022(6) 1. 0
O1 O2- 4 i 0 0.5 0.1595(6) 0.005(2) 1. 0
O2 O2- 2 h 0.5 0.5 0.342(1) 0.036(6) 1. 0
O3 O2- 1 c 0.5 0.5 0 0.020(6) 1. 0
#End of TTdata_88032-ICSD