
data_88316-ICSD
_database_code_ICSD 88316
_audit_creation_date 2001-07-16
_chemical_name_systematic 'Zirconium oxide (3/1)'
_chemical_formula_structural 'Zr3 O'
_chemical_formula_sum 'O1 Zr3'
_chemical_name_structure_type Fe3N1+x
_exptl_crystal_density_diffrn 6.79
_cell_length_a 5.6172(7)
_cell_length_b 5.6172(7)
_cell_length_c 5.185(1)
_cell_angle_alpha 90.
_cell_angle_beta 90.
_cell_angle_gamma 120.
_cell_volume 141.68
_cell_formula_units_Z 2
_symmetry_space_group_name_H-M 'P 63 2 2'
_symmetry_Int_Tables_number 182
_refine_ls_R_factor_all 0.063
loop_
_symmetry_equiv_pos_site_id
_symmetry_equiv_pos_as_xyz
1 'x, x-y, -z+1/2'
2 '-x+y, y, -z+1/2'
3 '-y, -x, -z+1/2'
4 'x-y, x, z+1/2'
5 'y, -x+y, z+1/2'
6 '-x, -y, z+1/2'
7 '-x, -x+y, -z'
8 'x-y, -y, -z'
9 'y, x, -z'
10 '-x+y, -x, z'
11 '-y, x-y, z'
12 'x, y, z'
loop_
_atom_type_symbol
_atom_type_oxidation_number
Zr0+ 0
O0+ 0
loop_
_atom_site_label
_atom_site_type_symbol
_atom_site_symmetry_multiplicity
_atom_site_Wyckoff_symbol
_atom_site_fract_x
_atom_site_fract_y
_atom_site_fract_z
_atom_site_B_iso_or_equiv
_atom_site_occupancy
_atom_site_attached_hydrogens
Zr1 Zr0+ 6 g 0.3333 0 0 0.001(2) 1. 0
O1 O0+ 2 c 0.3333 0.6667 0.25 0.002(4) 1. 0
