
#(C) 2017 by FIZ Karlsruhe - Leibniz Institute for Information Infrastructure.  All rights reserved.
data_88425-ICSD
_database_code_ICSD 88425
_audit_creation_date 2001-07-16
_chemical_name_systematic
'Dicopper(I) tristrontium discandium disulfide pentaoxide'
_chemical_formula_structural '(Cu2 S2) (Sr3 Sc2 O5)'
_chemical_formula_sum 'Cu2 O5 S2 Sc2 Sr3'
_chemical_name_structure_type Ni3SmGe3
_exptl_crystal_density_diffrn 4.8
_publ_section_title

;
New candidates for superconductors; a series of layered oxysulfides (Cu2 S2)
(Srn+1 Mn O3n-1)
;
loop_
_citation_id
_citation_journal_full
_citation_year
_citation_journal_volume
_citation_page_first
_citation_page_last
_citation_journal_id_ASTM
primary 'Journal of Low Temperature Physics' 1999 117 729 733 JLTPAC
loop_
_publ_author_name
'Otzschi, K.'
'Ogino, H.'
'Shimoyama, J.-I.'
'Kishio, K.'
_cell_length_a 4.0758(2)
_cell_length_b 4.0758(2)
_cell_length_c 25.9850(20)
_cell_angle_alpha 90.
_cell_angle_beta 90.
_cell_angle_gamma 90.
_cell_volume 431.67
_cell_formula_units_Z 2
_symmetry_space_group_name_H-M 'I 4/m m m'
_symmetry_Int_Tables_number 139
_refine_ls_R_factor_all 0.039
loop_
_symmetry_equiv_pos_site_id
_symmetry_equiv_pos_as_xyz
1 'y, x, -z'
2 '-y, -x, -z'
3 '-y, x, -z'
4 'y, -x, -z'
5 '-x, y, -z'
6 'x, -y, -z'
7 'x, y, -z'
8 '-x, -y, -z'
9 '-y, -x, z'
10 'y, x, z'
11 'y, -x, z'
12 '-y, x, z'
13 'x, -y, z'
14 '-x, y, z'
15 '-x, -y, z'
16 'x, y, z'
17 'y+1/2, x+1/2, -z+1/2'
18 '-y+1/2, -x+1/2, -z+1/2'
19 '-y+1/2, x+1/2, -z+1/2'
20 'y+1/2, -x+1/2, -z+1/2'
21 '-x+1/2, y+1/2, -z+1/2'
22 'x+1/2, -y+1/2, -z+1/2'
23 'x+1/2, y+1/2, -z+1/2'
24 '-x+1/2, -y+1/2, -z+1/2'
25 '-y+1/2, -x+1/2, z+1/2'
26 'y+1/2, x+1/2, z+1/2'
27 'y+1/2, -x+1/2, z+1/2'
28 '-y+1/2, x+1/2, z+1/2'
29 'x+1/2, -y+1/2, z+1/2'
30 '-x+1/2, y+1/2, z+1/2'
31 '-x+1/2, -y+1/2, z+1/2'
32 'x+1/2, y+1/2, z+1/2'
loop_
_atom_type_symbol
_atom_type_oxidation_number
Sc3+ 3
Cu1+ 1
Sr2+ 2
S2- -2
O2- -2
loop_
_atom_site_label
_atom_site_type_symbol
_atom_site_symmetry_multiplicity
_atom_site_Wyckoff_symbol
_atom_site_fract_x
_atom_site_fract_y
_atom_site_fract_z
_atom_site_B_iso_or_equiv
_atom_site_occupancy
_atom_site_attached_hydrogens
Sc1 Sc3+ 4 e 0 0 0.073(1) 1. 1. 0
Cu1 Cu1+ 4 d 0.5 0 0.25 1. 1. 0
Sr1 Sr2+ 2 b 0.5 0.5 0 1. 1. 0
Sr2 Sr2+ 4 e 0.5 0.5 0.1431(8) 1. 1. 0
S1 S2- 4 e 0 0 0.195(2) 1. 1. 0
O1 O2- 8 g 0.5 0 0.087(3) 1. 1. 0
O2 O2- 2 a 0 0 0 1. 1. 0
#End of TTdata_88425-ICSD