
#(C) 2017 by FIZ Karlsruhe - Leibniz Institute for Information Infrastructure.  All rights reserved.
data_88460-ICSD
_database_code_ICSD 88460
_audit_creation_date 2001-07-16
_chemical_name_systematic 'Distrontium iron(III) trioxide fluoride'
_chemical_formula_structural 'Sr2 Fe O3 F'
_chemical_formula_sum 'F1 Fe1 O3 Sr2'
_chemical_name_structure_type (La,K)2CuO4
_exptl_crystal_density_diffrn 5.03
_publ_section_title

;
Syntheses, powder neutron diffraction structures and Mossbauer studies of some
complex iron oxyfluorides: Sr3 Fe2 O6 F0.87, Sr2 Fe O3 F and Ba2 In Fe O5
F0.68
;
loop_
_citation_id
_citation_journal_full
_citation_year
_citation_journal_volume
_citation_page_first
_citation_page_last
_citation_journal_id_ASTM
primary 'Journal of Materials Chemistry' 1999 9 2821 2827 JMACEP
loop_
_publ_author_name
'Case, G.S.'
'Hector, A.L.'
'Levason, W.'
'Needs, R.L.'
'Thomas, M.F.'
'Weller, M.T.'
_cell_length_a 3.8660(5)
_cell_length_b 3.8660(5)
_cell_length_c 13.1724(2)
_cell_angle_alpha 90.
_cell_angle_beta 90.
_cell_angle_gamma 90.
_cell_volume 196.87
_cell_formula_units_Z 2
_symmetry_space_group_name_H-M 'P 4/n m m Z'
_symmetry_Int_Tables_number 129
_refine_ls_R_factor_all 0.022
loop_
_symmetry_equiv_pos_site_id
_symmetry_equiv_pos_as_xyz
1 'y+1/2, x+1/2, -z'
2 '-y, x+1/2, -z'
3 'y+1/2, -x, -z'
4 '-y, -x, -z'
5 'x+1/2, y+1/2, -z'
6 '-x, y+1/2, -z'
7 'x+1/2, -y, -z'
8 '-x, -y, -z'
9 '-y+1/2, -x+1/2, z'
10 'y, -x+1/2, z'
11 '-y+1/2, x, z'
12 'y, x, z'
13 '-x+1/2, -y+1/2, z'
14 'x, -y+1/2, z'
15 '-x+1/2, y, z'
16 'x, y, z'
loop_
_atom_type_symbol
_atom_type_oxidation_number
Sr2+ 2
Fe3+ 3
O2- -2
F1- -1
loop_
_atom_site_label
_atom_site_type_symbol
_atom_site_symmetry_multiplicity
_atom_site_Wyckoff_symbol
_atom_site_fract_x
_atom_site_fract_y
_atom_site_fract_z
_atom_site_B_iso_or_equiv
_atom_site_occupancy
_atom_site_attached_hydrogens
Sr1 Sr2+ 2 c 0.25 0.25 0.37773(7) . 1. 0
Sr2 Sr2+ 2 c 0.25 0.25 0.10471(7) . 1. 0
Fe1 Fe3+ 2 c 0.75 0.75 0.22751(5) . 1. 0
O1 O2- 2 c 0.75 0.75 0.08290(9) . 1. 0
O2 O2- 4 f 0.75 0.25 0.25360(6) . 1. 0
F1 F1- 2 c 0.75 0.75 0.4348(1) . 1. 0
loop_
_atom_site_aniso_label
_atom_site_aniso_type_symbol
_atom_site_aniso_B_11
_atom_site_aniso_B_22
_atom_site_aniso_B_33
_atom_site_aniso_B_12
_atom_site_aniso_B_13
_atom_site_aniso_B_23
Sr1 Sr2+ 0.76(3) 0.76(3) 0.54(3) 0 0 0
Sr2 Sr2+ 0.74(3) 0.74(3) 0.47(3) 0 0 0
Fe1 Fe3+ 0.41(1) 0.41(1) 0.72(3) 0 0 0
O1 O2- 1.28(3) 1.28(3) 0.32(5) 0 0 0
O2 O2- 0.79(3) 0.37(2) 1.06(4) 0 0 0
F1 F1- 2.94(5) 2.94(5) 1.07(6) 0 0 0
#End of TTdata_88460-ICSD