
#(C) 2017 by FIZ Karlsruhe - Leibniz Institute for Information Infrastructure.  All rights reserved.
data_88578-ICSD
_database_code_ICSD 88578
_audit_creation_date 2001-07-16
_chemical_name_systematic 'Titanium silicon carbide (3/1/2)'
_chemical_formula_structural 'Ti3 Si C2'
_chemical_formula_sum 'C2 Si1 Ti3'
_chemical_name_structure_type Ti3C2Si
_exptl_crystal_density_diffrn 4.47
_cell_measurement_temperature 804.
_publ_section_title 'Thermal properties of Ti3 Si C2'
loop_
_citation_id
_citation_journal_full
_citation_year
_citation_journal_volume
_citation_page_first
_citation_page_last
_citation_journal_id_ASTM
primary 'Journal of Physics and Chemistry of Solids' 1999 60 429 439 JPCSAW
loop_
_publ_author_name
'Barsoum, M.W.'
'El-Raghy, T.'
'Rawn, C.J.'
'Porter, W.D.'
'Wang, H.'
'Payzant, E.A.'
'Hubbard, C.R.'
_cell_length_a 3.07827(7)
_cell_length_b 3.07827(7)
_cell_length_c 17.7119(6)
_cell_angle_alpha 90.
_cell_angle_beta 90.
_cell_angle_gamma 120.
_cell_volume 145.35
_cell_formula_units_Z 2
_symmetry_space_group_name_H-M 'P 63/m m c'
_symmetry_Int_Tables_number 194
_refine_ls_R_factor_all 0.082
loop_
_symmetry_equiv_pos_site_id
_symmetry_equiv_pos_as_xyz
1 'x, x-y, -z+1/2'
2 '-x+y, y, -z+1/2'
3 '-y, -x, -z+1/2'
4 '-x+y, -x, -z+1/2'
5 '-y, x-y, -z+1/2'
6 'x, y, -z+1/2'
7 '-x, -x+y, z+1/2'
8 'x-y, -y, z+1/2'
9 'y, x, z+1/2'
10 'x-y, x, z+1/2'
11 'y, -x+y, z+1/2'
12 '-x, -y, z+1/2'
13 '-x, -x+y, -z'
14 'x-y, -y, -z'
15 'y, x, -z'
16 'x-y, x, -z'
17 'y, -x+y, -z'
18 '-x, -y, -z'
19 'x, x-y, z'
20 '-x+y, y, z'
21 '-y, -x, z'
22 '-x+y, -x, z'
23 '-y, x-y, z'
24 'x, y, z'
loop_
_atom_type_symbol
_atom_type_oxidation_number
Ti0+ 0
Si0+ 0
C0+ 0
loop_
_atom_site_label
_atom_site_type_symbol
_atom_site_symmetry_multiplicity
_atom_site_Wyckoff_symbol
_atom_site_fract_x
_atom_site_fract_y
_atom_site_fract_z
_atom_site_B_iso_or_equiv
_atom_site_occupancy
_atom_site_attached_hydrogens
Ti1 Ti0+ 4 f 0.3333 0.6667 0.3654 . 1. 0
Ti2 Ti0+ 2 a 0 0 0 . 1. 0
Si1 Si0+ 2 b 0 0 0.25 . 1. 0
C1 C0+ 4 f 0.6667 0.3333 0.0723 . 1. 0
loop_
_atom_site_aniso_label
_atom_site_aniso_type_symbol
_atom_site_aniso_U_11
_atom_site_aniso_U_22
_atom_site_aniso_U_33
_atom_site_aniso_U_12
_atom_site_aniso_U_13
_atom_site_aniso_U_23
Ti1 Ti0+ 0.007(1) 0.007(1) 0.019(2) 0.0034(6) 0 0
Ti2 Ti0+ 0.002(1) 0.002(1) 0.018(3) 0.0010(7) 0 0
Si1 Si0+ 0.025(2) 0.025(2) 0.024(3) 0.0125(8) 0 0
C1 C0+ 0.0063(6) 0.0063(6) 0.014(1) 0.0032(3) 0 0
#End of TTdata_88578-ICSD