
data_88587-ICSD
_database_code_ICSD 88587
_audit_creation_date 2001-07-16
_audit_update_record 2006-04-01
_chemical_name_systematic 'Antimony sulfide bromide - LT'
_chemical_formula_structural 'Sb S Br'
_chemical_formula_sum 'Br1 S1 Sb1'
_chemical_name_structure_type SbSI
_exptl_crystal_density_diffrn 4.97
_cell_measurement_temperature 11.
_cell_length_a 8.168(4)
_cell_length_b 9.700(4)
_cell_length_c 3.942(2)
_cell_angle_alpha 90.
_cell_angle_beta 90.
_cell_angle_gamma 90.
_cell_volume 312.32
_cell_formula_units_Z 4
_symmetry_space_group_name_H-M 'P n a 21'
_symmetry_Int_Tables_number 33
_refine_ls_R_factor_all 0.072
loop_
_symmetry_equiv_pos_site_id
_symmetry_equiv_pos_as_xyz
1 'x+1/2, -y+1/2, z'
2 '-x+1/2, y+1/2, z+1/2'
3 '-x, -y, z+1/2'
4 'x, y, z'
loop_
_atom_type_symbol
_atom_type_oxidation_number
Sb3+ 3
S2- -2
Br1- -1
loop_
_atom_site_label
_atom_site_type_symbol
_atom_site_symmetry_multiplicity
_atom_site_Wyckoff_symbol
_atom_site_fract_x
_atom_site_fract_y
_atom_site_fract_z
_atom_site_B_iso_or_equiv
_atom_site_occupancy
_atom_site_attached_hydrogens
Sb1 Sb3+ 4 a 0.1235(1) 0.1321(1) 0.2777(7) . 1. 0
S1 S2- 4 a 0.8370(4) 0.0486(4) 0.2585(19) . 1. 0
Br1 Br1- 4 a 0.5135(2) 0.8231(1) 0.25 . 1. 0
loop_
_atom_site_aniso_label
_atom_site_aniso_type_symbol
_atom_site_aniso_beta_11
_atom_site_aniso_beta_22
_atom_site_aniso_beta_33
_atom_site_aniso_beta_12
_atom_site_aniso_beta_13
_atom_site_aniso_beta_23
Sb1 Sb3+ 0.0001(1) 0.0007(1) 0.0002(6) -.0001(3) 0.0000(3) -.0001(3)
S1 S2- 0.0007(4) 0.0010(3) 0.0015(21) 0.0002(3) -.0008(14) 0.0012(11)
Br1 Br1- 0.0004(2) 0.0009(1) -.0005(9) 0.0000(1) -.0011(5) -.0002(4)
