
#(C) 2017 by FIZ Karlsruhe - Leibniz Institute for Information Infrastructure.  All rights reserved.
data_88717-ICSD
_database_code_ICSD 88717
_audit_creation_date 2001-07-16
_chemical_name_systematic 'Barium phyllo-tritelluroyttrioargentate'
_chemical_formula_structural 'Ba (Y Ag Te3)'
_chemical_formula_sum 'Ag1 Ba1 Te3 Y1'
_chemical_name_structure_type KCuZrS3
_exptl_crystal_density_diffrn 6.32
_cell_measurement_temperature 115.
_publ_section_title

;
Synthesis and characterisation of a series of quaternary chalcogenides Ba Ln M
Q3 (Ln = rare earth, M = coinage metal, Q = Se or Te)
;
loop_
_citation_id
_citation_journal_full
_citation_year
_citation_journal_volume
_citation_page_first
_citation_page_last
_citation_journal_id_ASTM
primary 'Journal of Solid State Chemistry' 1999 147 366 371 JSSCBI
loop_
_publ_author_name
'Yang, Y.-T.'
'Ibers, J.A.'
_cell_length_a 4.4773(9)
_cell_length_b 14.856(3)
_cell_length_c 11.336(2)
_cell_angle_alpha 90.
_cell_angle_beta 90.
_cell_angle_gamma 90.
_cell_volume 754.01
_cell_formula_units_Z 4
_symmetry_space_group_name_H-M 'C m c m'
_symmetry_Int_Tables_number 63
_refine_ls_R_factor_all 0.023
loop_
_symmetry_equiv_pos_site_id
_symmetry_equiv_pos_as_xyz
1 '-x, y, -z+1/2'
2 '-x, -y, z+1/2'
3 '-x, y, z'
4 '-x, -y, -z'
5 'x, -y, z+1/2'
6 'x, y, -z+1/2'
7 'x, -y, -z'
8 'x, y, z'
9 '-x+1/2, y+1/2, -z+1/2'
10 '-x+1/2, -y+1/2, z+1/2'
11 '-x+1/2, y+1/2, z'
12 '-x+1/2, -y+1/2, -z'
13 'x+1/2, -y+1/2, z+1/2'
14 'x+1/2, y+1/2, -z+1/2'
15 'x+1/2, -y+1/2, -z'
16 'x+1/2, y+1/2, z'
loop_
_atom_type_symbol
_atom_type_oxidation_number
Y3+ 3
Ba2+ 2
Ag1+ 1
Te2- -2
loop_
_atom_site_label
_atom_site_type_symbol
_atom_site_symmetry_multiplicity
_atom_site_Wyckoff_symbol
_atom_site_fract_x
_atom_site_fract_y
_atom_site_fract_z
_atom_site_B_iso_or_equiv
_atom_site_occupancy
_atom_site_attached_hydrogens
Y1 Y3+ 4 a 0 0 0 0.0064(3) 1. 0
Ba1 Ba2+ 4 c 0 0.75483(5) 0.25 0.0080(2) 1. 0
Ag1 Ag1+ 4 c 0 0.46833(7) 0.25 0.0093(2) 1. 0
Te1 Te2- 8 f 0 0.36053(4) 0.05033(6) 0.0061(2) 1. 0
Te2 Te2- 4 c 0 0.07954(5) 0.25 0.0060(2) 1. 0
#End of TTdata_88717-ICSD