
data_88852-ICSD
_database_code_ICSD 88852
_audit_creation_date 2001-07-16
_chemical_name_systematic 'Gold phyllo-dithiochromate(III)'
_chemical_formula_structural 'Au (Cr S2)'
_chemical_formula_sum 'Au1 Cr1 S2'
_chemical_name_structure_type CuCrSe2-AgCrSe2(R3m)
_exptl_crystal_density_diffrn 6.92
_cell_measurement_temperature 299.
_cell_length_a 3.4823(4)
_cell_length_b 3.4823(4)
_cell_length_c 21.463(3)
_cell_angle_alpha 90.
_cell_angle_beta 90.
_cell_angle_gamma 120.
_cell_volume 225.4
_cell_formula_units_Z 3
_symmetry_space_group_name_H-M 'R 3 m H'
_symmetry_Int_Tables_number 160
_refine_ls_R_factor_all 0.048
loop_
_symmetry_equiv_pos_site_id
_symmetry_equiv_pos_as_xyz
1 '-x+y, y, z'
2 'x, x-y, z'
3 '-y, -x, z'
4 '-x+y, -x, z'
5 '-y, x-y, z'
6 'x, y, z'
7 '-x+y+2/3, y+1/3, z+1/3'
8 'x+2/3, x-y+1/3, z+1/3'
9 '-y+2/3, -x+1/3, z+1/3'
10 '-x+y+2/3, -x+1/3, z+1/3'
11 '-y+2/3, x-y+1/3, z+1/3'
12 'x+2/3, y+1/3, z+1/3'
13 '-x+y+1/3, y+2/3, z+2/3'
14 'x+1/3, x-y+2/3, z+2/3'
15 '-y+1/3, -x+2/3, z+2/3'
16 '-x+y+1/3, -x+2/3, z+2/3'
17 '-y+1/3, x-y+2/3, z+2/3'
18 'x+1/3, y+2/3, z+2/3'
loop_
_atom_type_symbol
_atom_type_oxidation_number
Au1+ 1
Cr3+ 3
S2- -2
loop_
_atom_site_label
_atom_site_type_symbol
_atom_site_symmetry_multiplicity
_atom_site_Wyckoff_symbol
_atom_site_fract_x
_atom_site_fract_y
_atom_site_fract_z
_atom_site_B_iso_or_equiv
_atom_site_occupancy
_atom_site_attached_hydrogens
Au1 Au1+ 3 a 0.3333 0.6667 0.4994(14) . 1. 0
Cr1 Cr3+ 3 a 0 0 0.3333 . 1. 0
S1 S2- 3 a 0.3333 0.6667 0.607(3) . 1. 0
S2 S2- 3 a 0.3333 0.6667 0.392(2) . 1. 0
loop_
_atom_site_aniso_label
_atom_site_aniso_type_symbol
_atom_site_aniso_U_11
_atom_site_aniso_U_22
_atom_site_aniso_U_33
_atom_site_aniso_U_12
_atom_site_aniso_U_13
_atom_site_aniso_U_23
Au1 Au1+ 0.0259(6) 0.0259(6) 0.0074(6) 0.0130(3) 0 0
Cr1 Cr3+ 0.0128(15) 0.0128(15) 0.007(3) 0.0064(8) 0 0
S1 S2- 0.025(9) 0.025(9) 0.014(13) 0.013(4) 0 0
S2 S2- 0.005(6) 0.005(6) 0.004(9) 0.002(3) 0 0
