
#(C) 2017 by FIZ Karlsruhe - Leibniz Institute for Information Infrastructure.  All rights reserved.
data_88870-ICSD
_database_code_ICSD 88870
_audit_creation_date 2001-07-16
_audit_update_record 2009-02-01
_chemical_name_systematic 'Cesium niobium bis(phosphate(V))'
_chemical_formula_structural 'Cs Nb (P O4)2'
_chemical_formula_sum 'Cs1 Nb1 O8 P2'
_chemical_name_structure_type NaV(SO4)2
_exptl_crystal_density_diffrn 3.44
_publ_section_title 'Synthesis and crystal structure of Cs Nb (P O4)2'
loop_
_citation_id
_citation_journal_full
_citation_year
_citation_journal_volume
_citation_page_first
_citation_page_last
_citation_journal_id_ASTM
primary Kristallografiya 1999 44 1024 1026 KRISAJ
loop_
_publ_author_name
'Murashova, E.V.'
'Chudinova, N.N.'
_cell_length_a 8.684(3)
_cell_length_b 5.230(2)
_cell_length_c 8.840(3)
_cell_angle_alpha 90.
_cell_angle_beta 93.21(3)
_cell_angle_gamma 90.
_cell_volume 400.86
_cell_formula_units_Z 2
_symmetry_space_group_name_H-M 'C 1 2/m 1'
_symmetry_Int_Tables_number 12
_refine_ls_R_factor_all 0.037
loop_
_symmetry_equiv_pos_site_id
_symmetry_equiv_pos_as_xyz
1 '-x, y, -z'
2 '-x, -y, -z'
3 'x, -y, z'
4 'x, y, z'
5 '-x+1/2, y+1/2, -z'
6 '-x+1/2, -y+1/2, -z'
7 'x+1/2, -y+1/2, z'
8 'x+1/2, y+1/2, z'
loop_
_atom_type_symbol
_atom_type_oxidation_number
Cs1+ 1
Nb5+ 5
P5+ 5
O2- -2
loop_
_atom_site_label
_atom_site_type_symbol
_atom_site_symmetry_multiplicity
_atom_site_Wyckoff_symbol
_atom_site_fract_x
_atom_site_fract_y
_atom_site_fract_z
_atom_site_B_iso_or_equiv
_atom_site_occupancy
_atom_site_attached_hydrogens
Cs1 Cs1+ 2 a 0 0 0 1.90(2) 1. 0
Nb1 Nb5+ 2 c 0 0 0.5 0.86(2) 1. 0
P1 P5+ 4 i 0.1436(3) 0.5 0.3075(3) 0.90(5) 1. 0
O1 O2- 8 j 0.0489(5) 0.263(1) 0.3522(6) 1.6(1) 1. 0
O2 O2- 4 i 0.2888(7) 0.5 0.4189(9) 1.4(2) 1. 0
O3 O2- 4 i 0.1787(9) 0.5 0.1490(9) 1.9(2) 1. 0
#End of TTdata_88870-ICSD