
#(C) 2017 by FIZ Karlsruhe - Leibniz Institute for Information Infrastructure.  All rights reserved.
data_89601-ICSD
_database_code_ICSD 89601
_audit_creation_date 2002-04-01
_chemical_name_systematic 'Dithallium tetrachloropalladate'
_chemical_formula_structural 'Tl2 (Pd Cl4)'
_chemical_formula_sum 'Cl4 Pd1 Tl2'
_chemical_name_structure_type K2PtCl4
_exptl_crystal_density_diffrn 4.97
_publ_section_title 'Darstellung und Kristallstruktur von Tl2 Pd Cl4'
loop_
_citation_id
_citation_journal_full
_citation_year
_citation_journal_volume
_citation_page_first
_citation_page_last
_citation_journal_id_ASTM
primary 'Zeitschrift fuer Anorganische und Allgemeine Chemie (1950) (DE)' 1999
625 379 381 ZAACAB
loop_
_publ_author_name
'Schuepp, B.'
'Keller, H.L.'
_cell_length_a 7.163(1)
_cell_length_b 7.163(1)
_cell_length_c 4.282(1)
_cell_angle_alpha 90.
_cell_angle_beta 90.
_cell_angle_gamma 90.
_cell_volume 219.7
_cell_formula_units_Z 1
_symmetry_space_group_name_H-M 'P 4/m m m'
_symmetry_Int_Tables_number 123
_refine_ls_R_factor_all 0.032
loop_
_symmetry_equiv_pos_site_id
_symmetry_equiv_pos_as_xyz
1 'y, x, -z'
2 '-y, -x, -z'
3 '-y, x, -z'
4 'y, -x, -z'
5 '-x, y, -z'
6 'x, -y, -z'
7 'x, y, -z'
8 '-x, -y, -z'
9 '-y, -x, z'
10 'y, x, z'
11 'y, -x, z'
12 '-y, x, z'
13 'x, -y, z'
14 '-x, y, z'
15 '-x, -y, z'
16 'x, y, z'
loop_
_atom_type_symbol
_atom_type_oxidation_number
Tl1+ 1
Pd2+ 2
Cl1- -1
loop_
_atom_site_label
_atom_site_type_symbol
_atom_site_symmetry_multiplicity
_atom_site_Wyckoff_symbol
_atom_site_fract_x
_atom_site_fract_y
_atom_site_fract_z
_atom_site_B_iso_or_equiv
_atom_site_occupancy
_atom_site_attached_hydrogens
Tl1 Tl1+ 2 e 0 0.5 0.5 . 1. 0
Pd1 Pd2+ 1 a 0 0 0 . 1. 0
Cl1 Cl1- 4 j 0.2278(3) 0.2278(3) 0 . 1. 0
loop_
_atom_site_aniso_label
_atom_site_aniso_type_symbol
_atom_site_aniso_U_11
_atom_site_aniso_U_22
_atom_site_aniso_U_33
_atom_site_aniso_U_12
_atom_site_aniso_U_13
_atom_site_aniso_U_23
Tl1 Tl1+ 0.101(1) 0.0439(7) 0.0421(8) 0 0 0
Pd1 Pd2+ 0.0314(8) 0.0314(8) 0.036(1) 0 0 0
Cl1 Cl1- 0.038(1) 0.038(1) 0.061(3) -.004(1) 0 0
#End of TTdata_89601-ICSD