
#(C) 2017 by FIZ Karlsruhe - Leibniz Institute for Information Infrastructure.  All rights reserved.
data_90341-ICSD
_database_code_ICSD 90341
_audit_creation_date 2002-04-01
_chemical_name_systematic 'Nickel germanide (1/2)'
_chemical_formula_structural 'Ni Ge2'
_chemical_formula_sum 'Ge2 Ni1'
_chemical_name_structure_type NiGe2
_exptl_crystal_density_diffrn 7.53
_cell_measurement_temperature 294.
_publ_section_title
'Ni Ge2: a new intermetallic compound synthesized under high pressure'
loop_
_citation_id
_citation_journal_full
_citation_year
_citation_journal_volume
_citation_page_first
_citation_page_last
_citation_journal_id_ASTM
primary 'Journal of Alloys and Compounds' 2000 305 306 310 JALCEU
loop_
_publ_author_name
'Takizawa, H.'
'Uheda, K.'
'Endo, T.'
_cell_length_a 10.830(5)
_cell_length_b 5.763(3)
_cell_length_c 5.762(3)
_cell_angle_alpha 90.
_cell_angle_beta 90.
_cell_angle_gamma 90.
_cell_volume 359.63
_cell_formula_units_Z 8
_symmetry_space_group_name_H-M 'C m c a'
_symmetry_Int_Tables_number 64
_refine_ls_R_factor_all 0.032
loop_
_symmetry_equiv_pos_site_id
_symmetry_equiv_pos_as_xyz
1 '-x, -y+1/2, z+1/2'
2 '-x, y+1/2, -z+1/2'
3 '-x, y, z'
4 '-x, -y, -z'
5 'x, y+1/2, -z+1/2'
6 'x, -y+1/2, z+1/2'
7 'x, -y, -z'
8 'x, y, z'
9 '-x+1/2, -y, z+1/2'
10 '-x+1/2, y, -z+1/2'
11 '-x+1/2, y+1/2, z'
12 '-x+1/2, -y+1/2, -z'
13 'x+1/2, y, -z+1/2'
14 'x+1/2, -y, z+1/2'
15 'x+1/2, -y+1/2, -z'
16 'x+1/2, y+1/2, z'
loop_
_atom_type_symbol
_atom_type_oxidation_number
Ni0+ 0
Ge0+ 0
loop_
_atom_site_label
_atom_site_type_symbol
_atom_site_symmetry_multiplicity
_atom_site_Wyckoff_symbol
_atom_site_fract_x
_atom_site_fract_y
_atom_site_fract_z
_atom_site_B_iso_or_equiv
_atom_site_occupancy
_atom_site_attached_hydrogens
Ni1 Ni0+ 8 d 0.1146(5) 0 0 0.2(1) 1. 0
Ge1 Ge0+ 8 f 0 0.1524(11) 0.3417(11) 0.8(1) 1. 0
Ge2 Ge0+ 8 e 0.25 0.2458(8) 0.25 0.8(1) 1. 0
#End of TTdata_90341-ICSD