
#(C) 2017 by FIZ Karlsruhe - Leibniz Institute for Information Infrastructure.  All rights reserved.
data_90838-ICSD
_database_code_ICSD 90838
_audit_creation_date 2002-04-01
_audit_update_record 2007-08-01
_chemical_name_systematic 'Tellurium(VI) oxide - I'
_chemical_formula_structural 'Te O3'
_chemical_formula_sum 'O3 Te1'
_chemical_name_structure_type FeF3
_exptl_crystal_density_diffrn 6.42
_publ_section_title

;
Synthesis, structure and thermal stability of tellurium oxides and oxide
sulfate formed from reactions in refluxing sulfuric acid
;
loop_
_citation_id
_citation_journal_full
_citation_year
_citation_journal_volume
_citation_page_first
_citation_page_last
_citation_journal_id_ASTM
primary 'Journal of the Chemical Society. Dalton Transactions (2000- )' 2000
2000 4542 4549 DALTFG
loop_
_publ_author_name
'Ahmed, M.A.K.'
'Fjellvag, H.'
'Kjekshus, A.'
_cell_length_a 5.1947(1)
_cell_length_b 5.1947(1)
_cell_length_c 5.1947(1)
_cell_angle_alpha 56.38(8)
_cell_angle_beta 56.38(8)
_cell_angle_gamma 56.38(8)
_cell_volume 90.82
_cell_formula_units_Z 2
_symmetry_space_group_name_H-M 'R -3 c R'
_symmetry_Int_Tables_number 167
_refine_ls_R_factor_all 0.045
loop_
_symmetry_equiv_pos_site_id
_symmetry_equiv_pos_as_xyz
1 '-x+1/2, -z+1/2, -y+1/2'
2 '-z+1/2, -y+1/2, -x+1/2'
3 '-y+1/2, -x+1/2, -z+1/2'
4 'x+1/2, z+1/2, y+1/2'
5 'z+1/2, y+1/2, x+1/2'
6 'y+1/2, x+1/2, z+1/2'
7 '-z, -x, -y'
8 '-y, -z, -x'
9 '-x, -y, -z'
10 'z, x, y'
11 'y, z, x'
12 'x, y, z'
loop_
_atom_type_symbol
_atom_type_oxidation_number
Te6+ 6
O2- -2
loop_
_atom_site_label
_atom_site_type_symbol
_atom_site_symmetry_multiplicity
_atom_site_Wyckoff_symbol
_atom_site_fract_x
_atom_site_fract_y
_atom_site_fract_z
_atom_site_B_iso_or_equiv
_atom_site_occupancy
_atom_site_attached_hydrogens
Te1 Te6+ 2 b 0 0 0 0.014(1) 1. 0
O1 O2- 6 e 0.892(1) 0.608(1) 0.25 0.010(2) 1. 0
#End of TTdata_90838-ICSD