
data_90956-ICSD
_database_code_ICSD 90956
_audit_creation_date 2002-04-01
_chemical_name_systematic 'Germanium selenide'
_chemical_formula_structural 'Ge Se2'
_chemical_formula_sum 'Ge1 Se2'
_exptl_crystal_density_diffrn 5.08
_cell_measurement_temperature 698.
_cell_measurement_pressure 2000000.
_cell_length_a 5.5073(3)
_cell_length_b 5.5073(3)
_cell_length_c 9.9374(8)
_cell_angle_alpha 90.
_cell_angle_beta 90.
_cell_angle_gamma 90.
_cell_volume 301.4
_cell_formula_units_Z 4
_symmetry_space_group_name_H-M 'I -4'
_symmetry_Int_Tables_number 82
_refine_ls_R_factor_all 0.034
loop_
_symmetry_equiv_pos_site_id
_symmetry_equiv_pos_as_xyz
1 '-y, x, -z'
2 'y, -x, -z'
3 '-x, -y, z'
4 'x, y, z'
5 '-y+1/2, x+1/2, -z+1/2'
6 'y+1/2, -x+1/2, -z+1/2'
7 '-x+1/2, -y+1/2, z+1/2'
8 'x+1/2, y+1/2, z+1/2'
loop_
_atom_type_symbol
_atom_type_oxidation_number
Ge4+ 4
Se2- -2
loop_
_atom_site_label
_atom_site_type_symbol
_atom_site_symmetry_multiplicity
_atom_site_Wyckoff_symbol
_atom_site_fract_x
_atom_site_fract_y
_atom_site_fract_z
_atom_site_B_iso_or_equiv
_atom_site_occupancy
_atom_site_attached_hydrogens
Ge1 Ge4+ 2 b 0.5 0.5 0 . 1. 0
Ge2 Ge4+ 2 d 0.5 0 0.25 . 1. 0
Se1 Se2- 8 g 0.7662(12) 0.260(5) 0.1282(12) . 1. 0
