
data_90957-ICSD
_database_code_ICSD 90957
_audit_creation_date 2002-04-01
_chemical_name_systematic 'Germanium selenide'
_chemical_formula_structural 'Ge Se2'
_chemical_formula_sum 'Ge1 Se2'
_exptl_crystal_density_diffrn 5.35
_cell_measurement_temperature 773.
_cell_measurement_pressure 6000000.
_cell_length_a 5.3389(4)
_cell_length_b 5.3389(4)
_cell_length_c 10.0361(11)
_cell_angle_alpha 90.
_cell_angle_beta 90.
_cell_angle_gamma 90.
_cell_volume 286.07
_cell_formula_units_Z 4
_symmetry_space_group_name_H-M 'P -4'
_symmetry_Int_Tables_number 81
_refine_ls_R_factor_all 0.033
loop_
_symmetry_equiv_pos_site_id
_symmetry_equiv_pos_as_xyz
1 '-y, x, -z'
2 'y, -x, -z'
3 '-x, -y, z'
4 'x, y, z'
loop_
_atom_type_symbol
_atom_type_oxidation_number
Ge4+ 4
Se2- -2
loop_
_atom_site_label
_atom_site_type_symbol
_atom_site_symmetry_multiplicity
_atom_site_Wyckoff_symbol
_atom_site_fract_x
_atom_site_fract_y
_atom_site_fract_z
_atom_site_B_iso_or_equiv
_atom_site_occupancy
_atom_site_attached_hydrogens
Ge1 Ge4+ 1 a 0 0 0 . 1. 0
Ge2 Ge4+ 1 d 0.5 0.5 0.5 . 1. 0
Ge3 Ge4+ 2 g 0 0.5 0.25 . 1. 0
Se1 Se2- 4 h 0.2739(21) 0.2340(13) 0.1280(25) . 1. 0
Se2 Se2- 4 h 0.7711(20) 0.7700(14) 0.6273(32) . 1. 0
