
data_91283-ICSD
_database_code_ICSD 91283
_audit_creation_date 2002-10-01
_chemical_name_systematic 'Dilithium sulfide'
_chemical_formula_structural 'Li2 S'
_chemical_formula_sum 'Li2 S1'
_exptl_crystal_density_diffrn 2.05
_cell_measurement_pressure 7900000.
_cell_length_a 5.9219(13)
_cell_length_b 3.6463(4)
_cell_length_c 6.8977(8)
_cell_angle_alpha 90.
_cell_angle_beta 90.
_cell_angle_gamma 90.
_cell_volume 148.94
_cell_formula_units_Z 4
_symmetry_space_group_name_H-M 'P n 21 a'
_symmetry_Int_Tables_number 33
_refine_ls_R_factor_all 0.101
loop_
_symmetry_equiv_pos_site_id
_symmetry_equiv_pos_as_xyz
1 'x+1/2, y, -z+1/2'
2 '-x+1/2, y+1/2, z+1/2'
3 '-x, y+1/2, -z'
4 'x, y, z'
loop_
_atom_type_symbol
_atom_type_oxidation_number
S2- -2
Li1+ 1
loop_
_atom_site_label
_atom_site_type_symbol
_atom_site_symmetry_multiplicity
_atom_site_Wyckoff_symbol
_atom_site_fract_x
_atom_site_fract_y
_atom_site_fract_z
_atom_site_B_iso_or_equiv
_atom_site_occupancy
_atom_site_attached_hydrogens
S1 S2- 4 a 0.7700(7) 0.25 0.6077(12) . 1. 0
Li1 Li1+ 4 a 0.849(2) 0.78(2) 0.362(2) . 1. 0
Li2 Li1+ 4 a 0.522(3) 0.797(14) 0.406(3) . 1. 0
