
data_9147-ICSD
_database_code_ICSD 9147
_audit_creation_date 1980-01-01
_audit_update_record 2003-04-01
_chemical_name_systematic 'Dizinc silicate - II'
_chemical_formula_structural 'Zn2 (Si O4)'
_chemical_formula_sum 'O4 Si1 Zn2'
_chemical_name_mineral 'Willemite HP'
_exptl_crystal_density_diffrn 4.66
_cell_length_a 7.0069(3)
_cell_length_b 7.0069(3)
_cell_length_c 6.4637(4)
_cell_angle_alpha 90.
_cell_angle_beta 90.
_cell_angle_gamma 90.
_cell_volume 317.35
_cell_formula_units_Z 4
_symmetry_space_group_name_H-M 'I -4 2 d'
_symmetry_Int_Tables_number 122
_refine_ls_R_factor_all 0.081
loop_
_symmetry_equiv_pos_site_id
_symmetry_equiv_pos_as_xyz
1 '-y, -x+1/2, z+1/4'
2 'y, -x, -z'
3 'y, x+1/2, z+1/4'
4 '-y, x, -z'
5 'x, -y+1/2, -z+1/4'
6 '-x, -y, z'
7 '-x, y+1/2, -z+1/4'
8 'x, y, z'
9 '-y+1/2, -x, z+3/4'
10 'y+1/2, -x+1/2, -z+1/2'
11 'y+1/2, x, z+3/4'
12 '-y+1/2, x+1/2, -z+1/2'
13 'x+1/2, -y, -z+3/4'
14 '-x+1/2, -y+1/2, z+1/2'
15 '-x+1/2, y, -z+3/4'
16 'x+1/2, y+1/2, z+1/2'
loop_
_atom_type_symbol
_atom_type_oxidation_number
Zn2+ 2
Si4+ 4
O2- -2
loop_
_atom_site_label
_atom_site_type_symbol
_atom_site_symmetry_multiplicity
_atom_site_Wyckoff_symbol
_atom_site_fract_x
_atom_site_fract_y
_atom_site_fract_z
_atom_site_B_iso_or_equiv
_atom_site_occupancy
_atom_site_attached_hydrogens
Zn1 Zn2+ 8 d 0.1570(6) 0.25 0.125 . 1. 0
Si1 Si4+ 4 b 0 0 0.5 . 1. 0
O1 O2- 16 e 0.3079(23) 0.4890(31) 0.1376(45) . 1. 0
loop_
_atom_site_aniso_label
_atom_site_aniso_type_symbol
_atom_site_aniso_beta_11
_atom_site_aniso_beta_22
_atom_site_aniso_beta_33
_atom_site_aniso_beta_12
_atom_site_aniso_beta_13
_atom_site_aniso_beta_23
Zn1 Zn2+ 0.0003(8) 0.0008(7) 0.0018(15) 0 0 0.0002(8)
Si1 Si4+ 0.0008(13) 0.0008(13) 0.0018(39) 0 0 0
O1 O2- 0.0034(27) 0.0049(28) 0.0068(68) -.0001(22) -.0001(42) -.0004(50)
