
#(C) 2017 by FIZ Karlsruhe - Leibniz Institute for Information Infrastructure.  All rights reserved.
data_91527-ICSD
_database_code_ICSD 91527
_audit_creation_date 2002-10-01
_audit_update_record 2009-02-01
_chemical_name_systematic 'Potassium nickel tris(phosphate(V))'
_chemical_formula_structural 'K Ni (P O3)3'
_chemical_formula_sum 'K1 Ni1 O9 P3'
_exptl_crystal_density_diffrn 2.72
_publ_section_title

;
Synthesis, IR spectra and structures of double metaphosphates M Ni (P O3)3 (M=
Na or K)
;
loop_
_citation_id
_citation_journal_full
_citation_year
_citation_journal_volume
_citation_page_first
_citation_page_last
_citation_journal_id_ASTM
primary Kristallografiya 2000 45 238 241 KRISAJ
loop_
_publ_author_name
'Kapshuk, A.A.'
'Nagornyi, P.G.'
'Petrenko, O.V.'
_cell_length_a 10.076(2)
_cell_length_b 10.076(2)
_cell_length_c 6.9623(5)
_cell_angle_alpha 90.
_cell_angle_beta 90.
_cell_angle_gamma 120.
_cell_volume 612.15
_cell_formula_units_Z 3
_symmetry_space_group_name_H-M 'R 3 H'
_symmetry_Int_Tables_number 146
_refine_ls_R_factor_all 0.026
loop_
_symmetry_equiv_pos_site_id
_symmetry_equiv_pos_as_xyz
1 '-x+y, -x, z'
2 '-y, x-y, z'
3 'x, y, z'
4 '-x+y+2/3, -x+1/3, z+1/3'
5 '-y+2/3, x-y+1/3, z+1/3'
6 'x+2/3, y+1/3, z+1/3'
7 '-x+y+1/3, -x+2/3, z+2/3'
8 '-y+1/3, x-y+2/3, z+2/3'
9 'x+1/3, y+2/3, z+2/3'
loop_
_atom_type_symbol
_atom_type_oxidation_number
Ni2+ 2
K1+ 1
P5+ 5
O2- -2
loop_
_atom_site_label
_atom_site_type_symbol
_atom_site_symmetry_multiplicity
_atom_site_Wyckoff_symbol
_atom_site_fract_x
_atom_site_fract_y
_atom_site_fract_z
_atom_site_B_iso_or_equiv
_atom_site_occupancy
_atom_site_attached_hydrogens
Ni1 Ni2+ 3 a 0 0 0 0.006(1) 1. 0
K1 K1+ 3 a 0 0 0.4933(1) 0.018(1) 1. 0
P1 P5+ 9 b 0.3435(1) 0.2386(1) 0.1360(2) 0.007(1) 1. 0
O1 O2- 9 b 0.1875(1) 0.1092(5) 0.1778(3) 0.011(1) 1. 0
O2 O2- 9 b 0.3530(4) 0.3004(4) -.0779(5) 0.010(1) 1. 0
O3 O2- 9 b 0.4785(4) 0.2191(4) 0.1616(6) 0.009(1) 1. 0
#End of TTdata_91527-ICSD