
#(C) 2017 by FIZ Karlsruhe - Leibniz Institute for Information Infrastructure.  All rights reserved.
data_91750-ICSD
_database_code_ICSD 91750
_audit_creation_date 2002-10-01
_chemical_name_systematic 'Distrontium cobalt(III) trioxide chloride'
_chemical_formula_structural 'Sr2 Co O3 Cl'
_chemical_formula_sum 'Cl1 Co1 O3 Sr2'
_chemical_name_structure_type (La,K)2CuO4
_exptl_crystal_density_diffrn 4.95
_cell_measurement_temperature 200.
_publ_section_title
'Sr3 Co2 O5 Cl2 and Sr2 Co O3 Cl: two layered cobalt oxychlorides'
loop_
_citation_id
_citation_journal_full
_citation_year
_citation_journal_volume
_citation_page_first
_citation_page_last
_citation_journal_id_ASTM
primary 'Materials Research Bulletin' 2000 35 1035 1043 MRBUAC
loop_
_publ_author_name
'McGlothlin, N.'
'Ho, D.'
'Cava, R.J.'
_cell_length_a 3.875(5)
_cell_length_b 3.875(5)
_cell_length_c 14.188(21)
_cell_angle_alpha 90.
_cell_angle_beta 90.
_cell_angle_gamma 90.
_cell_volume 213.04
_cell_formula_units_Z 2
_symmetry_space_group_name_H-M 'P 4/n m m Z'
_symmetry_Int_Tables_number 129
_refine_ls_R_factor_all 0.067
loop_
_symmetry_equiv_pos_site_id
_symmetry_equiv_pos_as_xyz
1 'y+1/2, x+1/2, -z'
2 '-y, x+1/2, -z'
3 'y+1/2, -x, -z'
4 '-y, -x, -z'
5 'x+1/2, y+1/2, -z'
6 '-x, y+1/2, -z'
7 'x+1/2, -y, -z'
8 '-x, -y, -z'
9 '-y+1/2, -x+1/2, z'
10 'y, -x+1/2, z'
11 '-y+1/2, x, z'
12 'y, x, z'
13 '-x+1/2, -y+1/2, z'
14 'x, -y+1/2, z'
15 '-x+1/2, y, z'
16 'x, y, z'
loop_
_atom_type_symbol
_atom_type_oxidation_number
Sr2+ 2
Co3+ 3
O2- -2
Cl1- -1
loop_
_atom_site_label
_atom_site_type_symbol
_atom_site_symmetry_multiplicity
_atom_site_Wyckoff_symbol
_atom_site_fract_x
_atom_site_fract_y
_atom_site_fract_z
_atom_site_B_iso_or_equiv
_atom_site_occupancy
_atom_site_attached_hydrogens
Sr1 Sr2+ 2 c 0.75 0.75 0.09766(30) . 1. 0
Sr2 Sr2+ 2 c 0.75 0.75 0.34375(20) . 1. 0
Co1 Co3+ 2 c 0.25 0.25 0.20508(40) . 1. 0
O1 O2- 4 f 0.25 0.75 0.2285(12) . 1. 0
O2 O2- 2 c 0.25 0.25 0.0752(16) . 1. 0
Cl1 Cl1- 2 c 0.25 0.25 0.42383(70) . 1. 0
loop_
_atom_site_aniso_label
_atom_site_aniso_type_symbol
_atom_site_aniso_U_11
_atom_site_aniso_U_22
_atom_site_aniso_U_33
_atom_site_aniso_U_12
_atom_site_aniso_U_13
_atom_site_aniso_U_23
Sr1 Sr2+ 0.0254(12) 0.0254(12) 0.0249(20) 0 0 0
Sr2 Sr2+ 0.0275(12) 0.0275(12) 0.022(2) 0 0 0
Co1 Co3+ 0.0253(15) 0.0253(15) 0.028(3) 0 0 0
O1 O2- 0.023(7) 0.023(7) 0.033(11) 0 0 0
O2 O2- 0.0259(70) 0.0259(70) 0.023(14) 0 0 0
Cl1 Cl1- 0.033(3) 0.033(3) 0.0289(60) 0 0 0
#End of TTdata_91750-ICSD