
#(C) 2017 by FIZ Karlsruhe - Leibniz Institute for Information Infrastructure.  All rights reserved.
data_92424-ICSD
_database_code_ICSD 92424
_audit_creation_date 2002-10-01
_chemical_name_systematic 'Dibismuth lanthanum tetraoxide iodide'
_chemical_formula_structural 'Bi2 La O4 I'
_chemical_formula_sum 'Bi2 I1 La1 O4'
_chemical_name_structure_type Bi2ErO4I
_exptl_crystal_density_diffrn 8.03
_publ_section_title

;
Untersuchungen zu Bismutseltenerdoxidhalogeniden der Zusammensetzung Bi2 SE O4
X (X=Cl,Br,I)
;
loop_
_citation_id
_citation_journal_full
_citation_year
_citation_journal_volume
_citation_page_first
_citation_page_last
_citation_journal_id_ASTM
primary 'Zeitschrift fuer Anorganische und Allgemeine Chemie (1950) (DE)' 2000
626 125 135 ZAACAB
loop_
_publ_author_name
'Schmidt, M.'
'Oppermann, H.'
'Hennig, C.'
'Henn, R.W.'
'Gmelin, E.'
'Soeger, N.'
'Binnewies, M.'
_cell_length_a 4.0010(1)
_cell_length_b 4.0010(1)
_cell_length_c 9.656(3)
_cell_angle_alpha 90.
_cell_angle_beta 90.
_cell_angle_gamma 90.
_cell_volume 154.57
_cell_formula_units_Z 1
_symmetry_space_group_name_H-M 'P 4/m m m'
_symmetry_Int_Tables_number 123
_refine_ls_R_factor_all 0.053
loop_
_symmetry_equiv_pos_site_id
_symmetry_equiv_pos_as_xyz
1 'y, x, -z'
2 '-y, -x, -z'
3 '-y, x, -z'
4 'y, -x, -z'
5 '-x, y, -z'
6 'x, -y, -z'
7 'x, y, -z'
8 '-x, -y, -z'
9 '-y, -x, z'
10 'y, x, z'
11 'y, -x, z'
12 '-y, x, z'
13 'x, -y, z'
14 '-x, y, z'
15 '-x, -y, z'
16 'x, y, z'
loop_
_atom_type_symbol
_atom_type_oxidation_number
Bi3+ 3
La3+ 3
O2- -2
I1- -1
loop_
_atom_site_label
_atom_site_type_symbol
_atom_site_symmetry_multiplicity
_atom_site_Wyckoff_symbol
_atom_site_fract_x
_atom_site_fract_y
_atom_site_fract_z
_atom_site_B_iso_or_equiv
_atom_site_occupancy
_atom_site_attached_hydrogens
Bi1 Bi3+ 2 h 0.5 0.5 0.7344(1) 0.35(3) 1. 0
La1 La3+ 1 a 0 0 0 0.38(5) 1. 0
O1 O2- 4 i 0.5 0 0.847(1) 1.9(3) 1. 0
I1 I1- 1 b 0 0 0.5 1.11(6) 1. 0
#End of TTdata_92424-ICSD