
#(C) 2017 by FIZ Karlsruhe - Leibniz Institute for Information Infrastructure.  All rights reserved.
data_92441-ICSD
_database_code_ICSD 92441
_audit_creation_date 2002-10-01
_chemical_name_systematic 'Zirconium palladium antimonide'
_chemical_formula_structural 'Zr Pd Sb'
_chemical_formula_sum 'Pd1 Sb1 Zr1'
_chemical_name_structure_type TiNiSi-MgSrSi
_exptl_crystal_density_diffrn 9.22
_publ_section_title

;
Palladiumpnictide des Zirconiums und Hafniums mit einem
Metall:Nichtmetall-Verhaeltnis von 2:1
;
loop_
_citation_id
_citation_journal_full
_citation_year
_citation_journal_volume
_citation_page_first
_citation_page_last
_citation_journal_id_ASTM
primary 'Zeitschrift fuer Anorganische und Allgemeine Chemie (1950) (DE)' 2000
626 1393 1399 ZAACAB
loop_
_publ_author_name
'Heerdmann, A.'
'Johrendt, D.'
'Mewis, A.'
_cell_length_a 6.814(1)
_cell_length_b 4.289(1)
_cell_length_c 7.870(2)
_cell_angle_alpha 90.
_cell_angle_beta 90.
_cell_angle_gamma 90.
_cell_volume 230.
_cell_formula_units_Z 4
_symmetry_space_group_name_H-M 'P n m a'
_symmetry_Int_Tables_number 62
_refine_ls_R_factor_all 0.045
loop_
_symmetry_equiv_pos_site_id
_symmetry_equiv_pos_as_xyz
1 'x+1/2, y, -z+1/2'
2 'x, -y+1/2, z'
3 '-x+1/2, y+1/2, z+1/2'
4 '-x, -y, -z'
5 '-x+1/2, -y, z+1/2'
6 '-x, y+1/2, -z'
7 'x+1/2, -y+1/2, -z+1/2'
8 'x, y, z'
loop_
_atom_type_symbol
_atom_type_oxidation_number
Zr0+ 0
Pd0+ 0
Sb0+ 0
loop_
_atom_site_label
_atom_site_type_symbol
_atom_site_symmetry_multiplicity
_atom_site_Wyckoff_symbol
_atom_site_fract_x
_atom_site_fract_y
_atom_site_fract_z
_atom_site_B_iso_or_equiv
_atom_site_occupancy
_atom_site_attached_hydrogens
Zr1 Zr0+ 4 c 0.5201(2) 0.25 0.6983(1) 0.0080(2) 1. 0
Pd1 Pd0+ 4 c 0.6549(1) 0.25 0.0680(1) 0.0107(2) 1. 0
Sb1 Sb0+ 4 c 0.2584(1) 0.25 0.1090(1) 0.0098(2) 1. 0
#End of TTdata_92441-ICSD