
#(C) 2017 by FIZ Karlsruhe - Leibniz Institute for Information Infrastructure.  All rights reserved.
data_92474-ICSD
_database_code_ICSD 92474
_audit_creation_date 2002-10-01
_audit_update_record 2016-02-01
_chemical_name_systematic 'Cesium antimonide (4/2)'
_chemical_formula_structural 'Cs4 Sb2'
_chemical_formula_sum 'Cs4 Sb2'
_exptl_crystal_density_diffrn 4.64
_publ_section_title

;
Darstellung und Kristallstruktur der bekannten Zintl-Phasen Cs3 Sb7und Cs4 Sb2
;
loop_
_citation_id
_citation_journal_full
_citation_year
_citation_journal_volume
_citation_page_first
_citation_page_last
_citation_journal_id_ASTM
primary 'Zeitschrift fuer Anorganische und Allgemeine Chemie (1950) (DE)' 2000
626 1992 1998 ZAACAB
loop_
_publ_author_name
'Hirschle, C.'
'Roehr, C.'
_cell_length_a 15.985(3)
_cell_length_b 6.319(2)
_cell_length_c 10.995(2)
_cell_angle_alpha 90.
_cell_angle_beta 90.
_cell_angle_gamma 90.
_cell_volume 1110.6
_cell_formula_units_Z 4
_symmetry_space_group_name_H-M 'P n m a'
_symmetry_Int_Tables_number 62
_refine_ls_R_factor_all 0.048
loop_
_symmetry_equiv_pos_site_id
_symmetry_equiv_pos_as_xyz
1 'x+1/2, y, -z+1/2'
2 'x, -y+1/2, z'
3 '-x+1/2, y+1/2, z+1/2'
4 '-x, -y, -z'
5 '-x+1/2, -y, z+1/2'
6 '-x, y+1/2, -z'
7 'x+1/2, -y+1/2, -z+1/2'
8 'x, y, z'
loop_
_atom_type_symbol
_atom_type_oxidation_number
Sb2- -2
Cs1+ 1
loop_
_atom_site_label
_atom_site_type_symbol
_atom_site_symmetry_multiplicity
_atom_site_Wyckoff_symbol
_atom_site_fract_x
_atom_site_fract_y
_atom_site_fract_z
_atom_site_B_iso_or_equiv
_atom_site_occupancy
_atom_site_attached_hydrogens
Sb1 Sb2- 4 c 0.15639(10) 0.25 0.59158(14) 0.0275(4) 1. 0
Sb2 Sb2- 4 c 0.16182(11) 0.75 0.06288(15) 0.0307(4) 1. 0
Cs1 Cs1+ 4 c 0.24391(12) 0.25 0.23979(15) 0.0378(5) 1. 0
Cs2 Cs1+ 4 c 0.20442(13) 0.75 0.40591(15) 0.0435(5) 1. 0
Cs3 Cs1+ 4 c 0.43929(13) 0.75 0.41361(18) 0.0548(6) 1. 0
Cs4 Cs1+ 4 c 0.49350(13) 0.25 0.1743(2) 0.0587(6) 1. 0
#End of TTdata_92474-ICSD