
#(C) 2017 by FIZ Karlsruhe - Leibniz Institute for Information Infrastructure.  All rights reserved.
data_93492-ICSD
_database_code_ICSD 93492
_audit_creation_date 2003-04-01
_chemical_name_systematic 'Dipotassium strontium ditantalate'
_chemical_formula_structural 'K2 Sr (Ta2 O7)'
_chemical_formula_sum 'K2 O7 Sr1 Ta2'
_chemical_name_structure_type Sr3Ti2O7
_exptl_crystal_density_diffrn 6.14
_cell_measurement_temperature 473.
_publ_section_title
'The layered perovskite K2 Sr Ta2 O7: hydration and K(+)/H(+) ion exchange'
loop_
_citation_id
_citation_journal_full
_citation_year
_citation_journal_volume
_citation_page_first
_citation_page_last
_citation_journal_id_ASTM
primary 'Journal of Materials Chemistry' 2001 11 1146 1151 JMACEP
loop_
_publ_author_name
'Crosnier-Lopez, M.P.'
'le Berre, F.'
'Fourquet, J.L.'
_cell_length_a 3.9858(1)
_cell_length_b 3.9858(1)
_cell_length_c 21.785(1)
_cell_angle_alpha 90
_cell_angle_beta 90
_cell_angle_gamma 90
_cell_volume 346.09
_cell_formula_units_Z 2
_symmetry_space_group_name_H-M 'I 4/m m m'
_symmetry_Int_Tables_number 139
_refine_ls_R_factor_all 0.024
loop_
_symmetry_equiv_pos_site_id
_symmetry_equiv_pos_as_xyz
1 'y, x, -z'
2 '-y, -x, -z'
3 '-y, x, -z'
4 'y, -x, -z'
5 '-x, y, -z'
6 'x, -y, -z'
7 'x, y, -z'
8 '-x, -y, -z'
9 '-y, -x, z'
10 'y, x, z'
11 'y, -x, z'
12 '-y, x, z'
13 'x, -y, z'
14 '-x, y, z'
15 '-x, -y, z'
16 'x, y, z'
17 'y+1/2, x+1/2, -z+1/2'
18 '-y+1/2, -x+1/2, -z+1/2'
19 '-y+1/2, x+1/2, -z+1/2'
20 'y+1/2, -x+1/2, -z+1/2'
21 '-x+1/2, y+1/2, -z+1/2'
22 'x+1/2, -y+1/2, -z+1/2'
23 'x+1/2, y+1/2, -z+1/2'
24 '-x+1/2, -y+1/2, -z+1/2'
25 '-y+1/2, -x+1/2, z+1/2'
26 'y+1/2, x+1/2, z+1/2'
27 'y+1/2, -x+1/2, z+1/2'
28 '-y+1/2, x+1/2, z+1/2'
29 'x+1/2, -y+1/2, z+1/2'
30 '-x+1/2, y+1/2, z+1/2'
31 '-x+1/2, -y+1/2, z+1/2'
32 'x+1/2, y+1/2, z+1/2'
loop_
_atom_type_symbol
_atom_type_oxidation_number
Ta5+ 5
Sr2+ 2
K1+ 1
O2- -2
loop_
_atom_site_label
_atom_site_type_symbol
_atom_site_symmetry_multiplicity
_atom_site_Wyckoff_symbol
_atom_site_fract_x
_atom_site_fract_y
_atom_site_fract_z
_atom_site_B_iso_or_equiv
_atom_site_occupancy
_atom_site_attached_hydrogens
Ta1 Ta5+ 4 e 0 0 0.40372(4) 0.23(1) 1. 0
Sr1 Sr2+ 2 a 0 0 0 0.92(5) 1. 0
K1 K1+ 4 e 0 0 0.1934(1) 0.40(8) 1. 0
O1 O2- 8 g 0.5 0 0.0862(3) 1.0(1) 1. 0
O2 O2- 4 e 0.5 0.5 0.1798(3) 1.0(1) 1. 0
O3 O2- 2 b 0 0 0.5 1.0(1) 1. 0
#End of TTdata_93492-ICSD