
#(C) 2017 by FIZ Karlsruhe - Leibniz Institute for Information Infrastructure.  All rights reserved.
data_93509-ICSD
_database_code_ICSD 93509
_audit_creation_date 2003-04-01
_chemical_name_systematic 'Distrontium iron(III) trioxide bromide'
_chemical_formula_structural 'Sr2 Fe O3 Br'
_chemical_formula_sum 'Br1 Fe1 O3 Sr2'
_chemical_name_structure_type (La,K)2CuO4
_exptl_crystal_density_diffrn 5.09
_publ_section_title

;
Structural and Mossbauer study of Sr2 Fe O3 X (X = F, Cl, Br) and the magnetic
structure of Sr2 Fe O3 F
;
loop_
_citation_id
_citation_journal_full
_citation_year
_citation_journal_volume
_citation_page_first
_citation_page_last
_citation_journal_id_ASTM
primary 'Journal of Materials Chemistry' 2001 11 527 532 JMACEP
loop_
_publ_author_name
'Hector, A.L.'
'Hutchings, J.'
'Needs, R.L.'
'Thomas, M.F.'
'Weller, M.T.'
_cell_length_a 3.9307(1)
_cell_length_b 3.9307(1)
_cell_length_c 15.1516(6)
_cell_angle_alpha 90
_cell_angle_beta 90
_cell_angle_gamma 90
_cell_volume 234.1
_cell_formula_units_Z 2
_symmetry_space_group_name_H-M 'P 4/n m m Z'
_symmetry_Int_Tables_number 129
_refine_ls_R_factor_all 0.049
loop_
_symmetry_equiv_pos_site_id
_symmetry_equiv_pos_as_xyz
1 'y+1/2, x+1/2, -z'
2 '-y, x+1/2, -z'
3 'y+1/2, -x, -z'
4 '-y, -x, -z'
5 'x+1/2, y+1/2, -z'
6 '-x, y+1/2, -z'
7 'x+1/2, -y, -z'
8 '-x, -y, -z'
9 '-y+1/2, -x+1/2, z'
10 'y, -x+1/2, z'
11 '-y+1/2, x, z'
12 'y, x, z'
13 '-x+1/2, -y+1/2, z'
14 'x, -y+1/2, z'
15 '-x+1/2, y, z'
16 'x, y, z'
loop_
_atom_type_symbol
_atom_type_oxidation_number
Fe3+ 3
Sr2+ 2
O2- -2
Br1- -1
loop_
_atom_site_label
_atom_site_type_symbol
_atom_site_symmetry_multiplicity
_atom_site_Wyckoff_symbol
_atom_site_fract_x
_atom_site_fract_y
_atom_site_fract_z
_atom_site_B_iso_or_equiv
_atom_site_occupancy
_atom_site_attached_hydrogens
Fe1 Fe3+ 2 c 0.75 0.75 0.19566(9) 0.63(8) 1. 0
Sr1 Sr2+ 2 c 0.25 0.25 0.0910(1) 0.82(9) 1. 0
Sr2 Sr2+ 2 c 0.25 0.25 0.3252(1) 1.00(6) 1. 0
O1 O2- 4 f 0.75 0.25 0.21771(9) 0.81(9) 1. 0
O2 O2- 2 c 0.75 0.75 0.0707(1) 1.05(6) 1. 0
Br1 Br1- 2 c 0.75 0.75 0.4158(1) 1.96(8) 1. 0
#End of TTdata_93509-ICSD