
#(C) 2017 by FIZ Karlsruhe - Leibniz Institute for Information Infrastructure.  All rights reserved.
data_93510-ICSD
_database_code_ICSD 93510
_audit_creation_date 2003-04-01
_audit_update_record 2012-02-01
_chemical_name_systematic 'Distrontium ferrate(III) fluoride'
_chemical_formula_structural 'Sr2 (Fe O3) F'
_chemical_formula_sum 'F1 Fe1 O3 Sr2'
_chemical_name_structure_type Sr2FeO3F
_exptl_crystal_density_diffrn 5.07
_cell_measurement_temperature 2.4
_publ_section_title

;
Structural and Moessbauer study of Sr2 Fe O3 X (X= F, Cl, Br) and the magnetic
structure of Sr2 Fe O3 F
;
loop_
_citation_id
_citation_journal_full
_citation_year
_citation_journal_volume
_citation_page_first
_citation_page_last
_citation_journal_id_ASTM
primary 'Journal of Materials Chemistry' 2001 11 527 532 JMACEP
loop_
_publ_author_name
'Hector, A.L.'
'Hutchings, J.'
'Needs, R.L.'
'Thomas, M.F.'
'Weller, M.T.'
_cell_length_a 5.45099(5)
_cell_length_b 5.45099(5)
_cell_length_c 26.2932(5)
_cell_angle_alpha 90
_cell_angle_beta 90
_cell_angle_gamma 90
_cell_volume 781.26
_cell_formula_units_Z 8
_symmetry_space_group_name_H-M 'P -4 2 c'
_symmetry_Int_Tables_number 112
_refine_ls_R_factor_all 0.011
loop_
_symmetry_equiv_pos_site_id
_symmetry_equiv_pos_as_xyz
1 'y, x, z+1/2'
2 '-y, -x, z+1/2'
3 'y, -x, -z'
4 '-y, x, -z'
5 'x, -y, -z+1/2'
6 '-x, y, -z+1/2'
7 '-x, -y, z'
8 'x, y, z'
loop_
_atom_type_symbol
_atom_type_oxidation_number
Fe3+ 3
Sr2+ 2
O2- -2
F1- -1
O2- -2
loop_
_atom_site_label
_atom_site_type_symbol
_atom_site_symmetry_multiplicity
_atom_site_Wyckoff_symbol
_atom_site_fract_x
_atom_site_fract_y
_atom_site_fract_z
_atom_site_B_iso_or_equiv
_atom_site_occupancy
_atom_site_attached_hydrogens
Fe1 Fe3+ 8 n 0.25 0.25 0.11389(4) 0.29(2) 1. 0
Sr1 Sr2+ 8 n 0.25 0.75 0.05247(6) 0.19(3) 1. 0
Sr2 Sr2+ 8 n 0.25 0.75 0.18891(6) 0.21(3) 1. 0
O1 O2- 8 n 0.25 0.25 0.04138(9) 0.46(3) 1. 0
F1 F1- 8 n 0.25 0.25 0.2168(1) 1.11(4) 1. 0
O2 O2- 4 k 0 0 0.12667(6) 0.46(3) 1. 0
O3 O2- 4 l 0.5 0.5 0.12667(6) 0.46(3) 1. 0
O4 O2- 4 m 0 0.5 0.12667(6) 0.46(3) 1. 0
O5 O2- 4 m 0.5 0 0.12667(6) 0.46(3) 1. 0
#End of TTdata_93510-ICSD