
#(C) 2017 by FIZ Karlsruhe - Leibniz Institute for Information Infrastructure.  All rights reserved.
data_9390-ICSD
_database_code_ICSD 9390
_audit_creation_date 1980-01-01
_audit_update_record 2008-08-01
_chemical_name_systematic 'Ditantalum chromium(II) oxide'
_chemical_formula_structural 'Ta2 Cr O6'
_chemical_formula_sum 'Cr1 O6 Ta2'
_chemical_name_structure_type Na2SnF6
_exptl_crystal_density_diffrn 8.08
_publ_section_title 'Effet Jahn-Teller dans le systeme Ta2 Cr O6 - Ta Cr O4'
loop_
_citation_id
_citation_journal_full
_citation_year
_citation_journal_volume
_citation_page_first
_citation_page_last
_citation_journal_id_ASTM
primary 'Journal of Solid State Chemistry' 1972 4 269 274 JSSCBI
loop_
_publ_author_name
'Massard, P.'
'Bernier, J.C.'
'Michel, A.'
_cell_length_a 4.74
_cell_length_b 4.75
_cell_length_c 9.305
_cell_angle_alpha 90.
_cell_angle_beta 90.95
_cell_angle_gamma 90.
_cell_volume 209.47
_cell_formula_units_Z 2
_symmetry_space_group_name_H-M 'P 1 21/n 1'
_symmetry_Int_Tables_number 14
_refine_ls_R_factor_all 0.055
loop_
_symmetry_equiv_pos_site_id
_symmetry_equiv_pos_as_xyz
1 '-x+1/2, y+1/2, -z+1/2'
2 '-x, -y, -z'
3 'x+1/2, -y+1/2, z+1/2'
4 'x, y, z'
loop_
_atom_type_symbol
_atom_type_oxidation_number
Cr2+ 2
Ta5+ 5
O2- -2
loop_
_atom_site_label
_atom_site_type_symbol
_atom_site_symmetry_multiplicity
_atom_site_Wyckoff_symbol
_atom_site_fract_x
_atom_site_fract_y
_atom_site_fract_z
_atom_site_B_iso_or_equiv
_atom_site_occupancy
_atom_site_attached_hydrogens
Cr1 Cr2+ 2 a 0 0 0 4. 1. 0
Ta1 Ta5+ 4 e 0 0 .333 4. 1. 0
O1 O2- 4 e 0.288 0.288 0.325 4. 1. 0
O2 O2- 4 e -.288 -.288 0.325 4. 1. 0
O3 O2- 4 e 0.28 0.28 0 4. 1. 0
#End of TTdata_9390-ICSD