
#(C) 2017 by FIZ Karlsruhe - Leibniz Institute for Information Infrastructure.  All rights reserved.
data_94014-ICSD
_database_code_ICSD 94014
_audit_creation_date 2003-04-01
_chemical_name_systematic 'Dioxonium divanadium vanadium(IV) oxide - Mo-doped'
_chemical_formula_structural '(H3 O)2 V3 O8'
_chemical_formula_sum 'H6 O10 V3'
_exptl_crystal_density_diffrn 2.4
_publ_section_title
'A novel Mo-doped compound with graphite-like structure: (H3 O)2 V3 O8'
loop_
_citation_id
_citation_journal_full
_citation_year
_citation_journal_volume
_citation_page_first
_citation_page_last
_citation_journal_id_ASTM
primary 'Jiegon Huaxue' 2001 20 462 465 JHUADF
loop_
_publ_author_name
'Wu, C.-D.'
'Lin, X.'
'Yang, W.-B.'
'Lu, C.-Z.'
'Zhuang, H.-H.'
_cell_length_a 8.904(1)
_cell_length_b 8.904(1)
_cell_length_c 5.573(1)
_cell_angle_alpha 90
_cell_angle_beta 90
_cell_angle_gamma 90
_cell_volume 441.83
_cell_formula_units_Z 2
_symmetry_space_group_name_H-M 'P 4 b m'
_symmetry_Int_Tables_number 100
_refine_ls_R_factor_all 0.048
loop_
_symmetry_equiv_pos_site_id
_symmetry_equiv_pos_as_xyz
1 '-y+1/2, -x+1/2, z'
2 'y+1/2, x+1/2, z'
3 'y, -x, z'
4 '-y, x, z'
5 '-x+1/2, y+1/2, z'
6 'x+1/2, -y+1/2, z'
7 '-x, -y, z'
8 'x, y, z'
loop_
_atom_type_symbol
_atom_type_oxidation_number
V5+ 5
V4+ 4
O2- -2
H1+ 1
loop_
_atom_site_label
_atom_site_type_symbol
_atom_site_symmetry_multiplicity
_atom_site_Wyckoff_symbol
_atom_site_fract_x
_atom_site_fract_y
_atom_site_fract_z
_atom_site_B_iso_or_equiv
_atom_site_occupancy
_atom_site_attached_hydrogens
V1 V5+ 4 c 0.3665(1) 0.1335(1) 0.2590(2) 0.013(1) 1. 0
V2 V4+ 2 a 0 0 0.2559(2) 0.014(1) 1. 0
O1 O2- 2 a 0 0 0.5451(16) 0.036(3) 1. 0
O2 O2- 8 d 0.1929(5) 0.0848(5) 0.1543(10) 0.023(1) 1. 0
O3 O2- 4 c 0.3696(4) 0.1304(4) 0.5605(15) 0.027(2) 1. 0
O4 O2- 2 b 0.5 0 0.1484(13) 0.019(2) 1. 0
O5 O2- 4 c 0.6694(5) 0.1694(5) 0.7914(13) 0.045(2) 1. 0
#End of TTdata_94014-ICSD