
data_94412-ICSD
_database_code_ICSD 94412
_audit_creation_date 2003-10-01
_chemical_name_systematic 'Magnesium cobalt phosphide (1/6/4)'
_chemical_formula_structural 'Mg Co6 P4'
_chemical_formula_sum 'Co6 Mg1 P4'
_chemical_name_structure_type LiCo6P4
_exptl_crystal_density_diffrn 6.52
_cell_length_a 6.609(1)
_cell_length_b 6.609(1)
_cell_length_c 3.380(1)
_cell_angle_alpha 90
_cell_angle_beta 90
_cell_angle_gamma 120
_cell_volume 127.86
_cell_formula_units_Z 1
_symmetry_space_group_name_H-M 'P -6 m 2'
_symmetry_Int_Tables_number 187
_refine_ls_R_factor_all 0.021
loop_
_symmetry_equiv_pos_site_id
_symmetry_equiv_pos_as_xyz
1 'x, x-y, -z'
2 '-x+y, y, -z'
3 '-y, -x, -z'
4 'x, x-y, z'
5 '-x+y, y, z'
6 '-y, -x, z'
7 '-x+y, -x, -z'
8 '-y, x-y, -z'
9 'x, y, -z'
10 '-x+y, -x, z'
11 '-y, x-y, z'
12 'x, y, z'
loop_
_atom_type_symbol
_atom_type_oxidation_number
Mg0+ 0
Co0+ 0
P0+ 0
loop_
_atom_site_label
_atom_site_type_symbol
_atom_site_symmetry_multiplicity
_atom_site_Wyckoff_symbol
_atom_site_fract_x
_atom_site_fract_y
_atom_site_fract_z
_atom_site_B_iso_or_equiv
_atom_site_occupancy
_atom_site_attached_hydrogens
Mg1 Mg0+ 1 a 0 0 0 0.0084(6) 1. 0
Co1 Co0+ 3 j 0.5355(1) 0.4645(1) 0 0.0040(2) 1. 0
Co2 Co0+ 3 k 0.1996(1) 0.8004(1) 0.5 0.0033(2) 1. 0
P1 P0+ 1 c 0.3333 0.6667 0 0.0037(5) 1. 0
P2 P0+ 3 k 0.8151(1) 0.1849(1) 0.5 0.0038(3) 1. 0
