
#(C) 2017 by FIZ Karlsruhe - Leibniz Institute for Information Infrastructure.  All rights reserved.
data_94428-ICSD
_database_code_ICSD 94428
_audit_creation_date 2003-10-01
_audit_update_record 2011-02-01
_chemical_name_systematic 'Barium bis(thiocyanate)'
_chemical_formula_structural 'Ba (S C N)2'
_chemical_formula_sum 'C2 Ba1 N2 S2'
_chemical_name_structure_type Ba(SCN)2
_exptl_crystal_density_diffrn 2.82
_publ_section_title

;
M (S C N)2 (M = Eu, Sr, Ba): Kristallstruktur, thermisches Verhalten,
Schwingungsspektroskopie
;
loop_
_citation_id
_citation_journal_full
_citation_year
_citation_journal_volume
_citation_page_first
_citation_page_last
_citation_journal_id_ASTM
primary 'Zeitschrift fuer Anorganische und Allgemeine Chemie (1950) (DE)' 2001
627 1693 1698 ZAACAB
loop_
_publ_author_name
'Wickleder, C.'
_cell_length_a 10.188(2)
_cell_length_b 6.872(1)
_cell_length_c 8.522(1)
_cell_angle_alpha 90
_cell_angle_beta 92.43(2)
_cell_angle_gamma 90
_cell_volume 596.11
_cell_formula_units_Z 4
_symmetry_space_group_name_H-M 'C 1 2/c 1'
_symmetry_Int_Tables_number 15
_refine_ls_R_factor_all 0.0318
loop_
_symmetry_equiv_pos_site_id
_symmetry_equiv_pos_as_xyz
1 'x, -y, z+1/2'
2 '-x, -y, -z'
3 '-x, y, -z+1/2'
4 'x, y, z'
5 'x+1/2, -y+1/2, z+1/2'
6 '-x+1/2, -y+1/2, -z'
7 '-x+1/2, y+1/2, -z+1/2'
8 'x+1/2, y+1/2, z'
loop_
_atom_type_symbol
_atom_type_oxidation_number
Ba2+ 2
S2- -2
C4+ 4
N3- -3
loop_
_atom_site_label
_atom_site_type_symbol
_atom_site_symmetry_multiplicity
_atom_site_Wyckoff_symbol
_atom_site_fract_x
_atom_site_fract_y
_atom_site_fract_z
_atom_site_B_iso_or_equiv
_atom_site_occupancy
_atom_site_attached_hydrogens
Ba1 Ba2+ 4 e 0 0.10479(6) 0.75 0.0182(2) 1. 0
S1 S2- 8 f 0.2053(1) 0.9466(3) 0.6739(3) 0.0373(6) 1. 0
C1 C4+ 8 f 0.8805(7) 0.6393(12) 0.6028(9) 0.027(2) 1. 0
N1 N3- 8 f 0.9415(7) 0.7789(10) 0.5529(7) 0.031(1) 1. 0
#End of TTdata_94428-ICSD