
#(C) 2017 by FIZ Karlsruhe - Leibniz Institute for Information Infrastructure.  All rights reserved.
data_94745-ICSD
_database_code_ICSD 94745
_audit_creation_date 2003-10-01
_chemical_name_systematic 'Distrontium manganese(III) trioxide chloride'
_chemical_formula_structural 'Sr2 Mn O3 Cl'
_chemical_formula_sum 'Cl1 Mn1 O3 Sr2'
_chemical_name_structure_type (La,K)2CuO4
_exptl_crystal_density_diffrn 4.79
_publ_section_title 'New layered manganese oxide halides'
loop_
_citation_id
_citation_journal_full
_citation_year
_citation_journal_volume
_citation_page_first
_citation_page_last
_citation_journal_id_ASTM
primary 'ChemComm - Chemical Communications' 2002 2002 256 257 CHCOFS
loop_
_publ_author_name
'Knee, C.S.'
'Weller, M.T.'
_cell_length_a 3.84170(3)
_cell_length_b 3.84170(3)
_cell_length_c 14.7372(2)
_cell_angle_alpha 90
_cell_angle_beta 90
_cell_angle_gamma 90
_cell_volume 217.5
_cell_formula_units_Z 2
_symmetry_space_group_name_H-M 'P 4/n m m Z'
_symmetry_Int_Tables_number 129
_refine_ls_R_factor_all 0.0124
loop_
_symmetry_equiv_pos_site_id
_symmetry_equiv_pos_as_xyz
1 'y+1/2, x+1/2, -z'
2 '-y, x+1/2, -z'
3 'y+1/2, -x, -z'
4 '-y, -x, -z'
5 'x+1/2, y+1/2, -z'
6 '-x, y+1/2, -z'
7 'x+1/2, -y, -z'
8 '-x, -y, -z'
9 '-y+1/2, -x+1/2, z'
10 'y, -x+1/2, z'
11 '-y+1/2, x, z'
12 'y, x, z'
13 '-x+1/2, -y+1/2, z'
14 'x, -y+1/2, z'
15 '-x+1/2, y, z'
16 'x, y, z'
loop_
_atom_type_symbol
_atom_type_oxidation_number
Sr2+ 2
Mn3+ 3
O2- -2
Cl1- -1
loop_
_atom_site_label
_atom_site_type_symbol
_atom_site_symmetry_multiplicity
_atom_site_Wyckoff_symbol
_atom_site_fract_x
_atom_site_fract_y
_atom_site_fract_z
_atom_site_B_iso_or_equiv
_atom_site_occupancy
_atom_site_attached_hydrogens
Sr1 Sr2+ 2 c 0.25 0.25 0.09083(6) 1.48(3) 1. 0
Sr2 Sr2+ 2 c 0.25 0.25 0.34372(7) 1.56(3) 1. 0
Mn1 Mn3+ 2 c 0.75 0.75 0.2103(1) 1.22(4) 1. 0
O1 O2- 4 f 0.75 0.25 0.2311(3) 1.76(9) 1. 0
O2 O2- 2 c 0.75 0.75 0.0734(4) 2.2(1) 1. 0
Cl1 Cl1- 2 c 0.75 0.75 0.4264(2) 2.31(6) 1. 0
#End of TTdata_94745-ICSD