
#(C) 2017 by FIZ Karlsruhe - Leibniz Institute for Information Infrastructure.  All rights reserved.
data_94883-ICSD
_database_code_ICSD 94883
_audit_creation_date 2003-10-01
_chemical_name_systematic 'Distrontium aluminium deuteride'
_chemical_formula_structural 'Sr2 Al D7'
_chemical_formula_sum 'D7 Al1 Sr2'
_exptl_crystal_density_diffrn 2.98
_publ_section_title

;
Synthesis and crystal structure of Sr2 Al H7: a new structural type of
alkaline earth aluminium hydride
;
loop_
_citation_id
_citation_journal_full
_citation_year
_citation_journal_volume
_citation_page_first
_citation_page_last
_citation_journal_id_ASTM
primary 'Inorganic Chemistry' 2003 42 3152 3152 INOCAJ
loop_
_publ_author_name
'Zhang, Q.-A.'
'Nakamura, Y.'
'Oikawa, K.I.'
'Kamiyama, T.'
'Akiba, E.'
_cell_length_a 12.552(1)
_cell_length_b 9.7826(8)
_cell_length_c 7.9816(7)
_cell_angle_alpha 90
_cell_angle_beta 100.286(4)
_cell_angle_gamma 90
_cell_volume 964.32
_cell_formula_units_Z 8
_symmetry_space_group_name_H-M 'I 1 2/a 1'
_symmetry_Int_Tables_number 15
_refine_ls_R_factor_all 0.0195
loop_
_symmetry_equiv_pos_site_id
_symmetry_equiv_pos_as_xyz
1 'x+1/2, -y, z'
2 '-x, -y, -z'
3 '-x+1/2, y, -z'
4 'x, y, z'
5 'x, -y+1/2, z+1/2'
6 '-x+1/2, -y+1/2, -z+1/2'
7 '-x, y+1/2, -z+1/2'
8 'x+1/2, y+1/2, z+1/2'
loop_
_atom_type_symbol
_atom_type_oxidation_number
Sr2+ 2
Al3+ 3
D1- -1
loop_
_atom_site_label
_atom_site_type_symbol
_atom_site_symmetry_multiplicity
_atom_site_Wyckoff_symbol
_atom_site_fract_x
_atom_site_fract_y
_atom_site_fract_z
_atom_site_B_iso_or_equiv
_atom_site_occupancy
_atom_site_attached_hydrogens
Sr1 Sr2+ 8 f 0.3455(3) 0.5789(4) 0.3195(6) 0.8(1) 1. 0
Sr2 Sr2+ 8 f 0.1109(4) 0.3184(4) 0.0882(6) 0.9(1) 1. 0
Al1 Al3+ 8 f 0.921(1) 0.097(1) 0.232(2) 1.2(2) 1. 0
#End of TTdata_94883-ICSD