
#(C) 2017 by FIZ Karlsruhe - Leibniz Institute for Information Infrastructure.  All rights reserved.
data_9496-ICSD
_database_code_ICSD 9496
_audit_creation_date 1980-01-01
_audit_update_record 2007-08-01
_chemical_name_systematic 'Manganese(III) arsenide'
_chemical_formula_structural 'Mn As'
_chemical_formula_sum 'As1 Mn1'
_chemical_name_structure_type MnP
_exptl_crystal_density_diffrn 6.45
_cell_measurement_temperature 317.
_publ_section_title 'The crystal structure of Mn As'
loop_
_citation_id
_citation_journal_full
_citation_year
_citation_journal_volume
_citation_page_first
_citation_page_last
_citation_journal_id_ASTM
primary 'Tohoku Gakuin Daigaku Kogakubu Kenkyu Hokoku' 1978 13 57 61 TGDHDK
loop_
_publ_author_name
'Suzuki, T.'
_cell_length_a 5.7232(8)
_cell_length_b 3.6723(8)
_cell_length_c 6.3670(12)
_cell_angle_alpha 90.
_cell_angle_beta 90.
_cell_angle_gamma 90.
_cell_volume 133.82
_cell_formula_units_Z 4
_symmetry_space_group_name_H-M 'P n m a'
_symmetry_Int_Tables_number 62
loop_
_symmetry_equiv_pos_site_id
_symmetry_equiv_pos_as_xyz
1 'x+1/2, y, -z+1/2'
2 'x, -y+1/2, z'
3 '-x+1/2, y+1/2, z+1/2'
4 '-x, -y, -z'
5 '-x+1/2, -y, z+1/2'
6 '-x, y+1/2, -z'
7 'x+1/2, -y+1/2, -z+1/2'
8 'x, y, z'
loop_
_atom_type_symbol
_atom_type_oxidation_number
Mn3+ 3
As3- -3
loop_
_atom_site_label
_atom_site_type_symbol
_atom_site_symmetry_multiplicity
_atom_site_Wyckoff_symbol
_atom_site_fract_x
_atom_site_fract_y
_atom_site_fract_z
_atom_site_B_iso_or_equiv
_atom_site_occupancy
_atom_site_attached_hydrogens
Mn1 Mn3+ 4 c -.0047 0.25 0.2229 . 1. 0
As1 As3- 4 c 0.2745 0.25 -.0816 . 1. 0
#End of TTdata_9496-ICSD