
#(C) 2017 by FIZ Karlsruhe - Leibniz Institute for Information Infrastructure.  All rights reserved.
data_9518-ICSD
_database_code_ICSD 9518
_audit_creation_date 1980-01-01
_audit_update_record 2010-08-01
_chemical_name_systematic 'Disodium magnesium bis(carbonate)'
_chemical_formula_structural 'Na2 Mg (C O3)2'
_chemical_formula_sum 'C2 Mg1 Na2 O6'
_chemical_name_structure_type Na2Mg(CO3)2
_chemical_name_mineral Eitelite
_exptl_crystal_density_diffrn 2.73
_publ_section_title
'The crystallography and structure of Eitelite, Na2 Mg (C O3)2'
loop_
_citation_id
_citation_journal_full
_citation_year
_citation_journal_volume
_citation_page_first
_citation_page_last
_citation_journal_id_ASTM
primary 'American Mineralogist' 1973 58 211 217 AMMIAY
loop_
_publ_author_name
'Pabst, A.'
_cell_length_a 4.942(2)
_cell_length_b 4.942(2)
_cell_length_c 16.4060(70)
_cell_angle_alpha 90.
_cell_angle_beta 90.
_cell_angle_gamma 120.
_cell_volume 347.01
_cell_formula_units_Z 3
_symmetry_space_group_name_H-M 'R -3 H'
_symmetry_Int_Tables_number 148
_refine_ls_R_factor_all 0.136
loop_
_symmetry_equiv_pos_site_id
_symmetry_equiv_pos_as_xyz
1 'x-y, x, -z'
2 'y, -x+y, -z'
3 '-x, -y, -z'
4 '-x+y, -x, z'
5 '-y, x-y, z'
6 'x, y, z'
7 'x-y+2/3, x+1/3, -z+1/3'
8 'y+2/3, -x+y+1/3, -z+1/3'
9 '-x+2/3, -y+1/3, -z+1/3'
10 '-x+y+2/3, -x+1/3, z+1/3'
11 '-y+2/3, x-y+1/3, z+1/3'
12 'x+2/3, y+1/3, z+1/3'
13 'x-y+1/3, x+2/3, -z+2/3'
14 'y+1/3, -x+y+2/3, -z+2/3'
15 '-x+1/3, -y+2/3, -z+2/3'
16 '-x+y+1/3, -x+2/3, z+2/3'
17 '-y+1/3, x-y+2/3, z+2/3'
18 'x+1/3, y+2/3, z+2/3'
loop_
_atom_type_symbol
_atom_type_oxidation_number
Na1+ 1
Mg2+ 2
C4+ 4
O2- -2
loop_
_atom_site_label
_atom_site_type_symbol
_atom_site_symmetry_multiplicity
_atom_site_Wyckoff_symbol
_atom_site_fract_x
_atom_site_fract_y
_atom_site_fract_z
_atom_site_B_iso_or_equiv
_atom_site_occupancy
_atom_site_attached_hydrogens
Na1 Na1+ 6 c 0 0 0.196 0.4 1. 0
Mg1 Mg2+ 3 a 0 0 0 0.4 1. 0
C1 C4+ 6 c 0 0 0.41 0.4 1. 0
O1 O2- 18 f 0.293 0.092 0.41 0.4 1. 0
#End of TTdata_9518-ICSD