
data_9519-ICSD
_database_code_ICSD 9519
_audit_creation_date 1980-01-01
_audit_update_record 2007-04-01
_chemical_name_systematic 'Trisodium sulfate(VI) fluoride'
_chemical_formula_structural 'Na3 (S O4) F'
_chemical_formula_sum 'F1 Na3 O4 S1'
_chemical_name_mineral Kogarkoite
_exptl_crystal_density_diffrn 2.69
_cell_length_a 4.846
_cell_length_b 4.846
_cell_length_c 4.846
_cell_angle_alpha 91.8
_cell_angle_beta 91.8
_cell_angle_gamma 91.8
_cell_volume 113.63
_cell_formula_units_Z 1
_symmetry_space_group_name_H-M 'R 3 m R'
_symmetry_Int_Tables_number 160
_refine_ls_R_factor_all 0.24
loop_
_symmetry_equiv_pos_site_id
_symmetry_equiv_pos_as_xyz
1 'z, y, x'
2 'z, x, y'
3 'x, z, y'
4 'y, z, x'
5 'y, x, z'
6 'x, y, z'
loop_
_atom_type_symbol
_atom_type_oxidation_number
Na1+ 1
S6+ 6
O2- -2
F1- -1
loop_
_atom_site_label
_atom_site_type_symbol
_atom_site_symmetry_multiplicity
_atom_site_Wyckoff_symbol
_atom_site_fract_x
_atom_site_fract_y
_atom_site_fract_z
_atom_site_B_iso_or_equiv
_atom_site_occupancy
_atom_site_attached_hydrogens
Na1 Na1+ 3 b 0.5 0.5 0 . 1. 0
S1 S6+ 1 a 0.496 0.496 0.496 . 1. 0
O1 O2- 1 a 0.315 0.315 0.315 . 1. 0
O2 O2- 3 b 0.671 0.671 0.325 . 1. 0
F1 F1- 1 a 0 0 0 . 1. 0
