
#(C) 2017 by FIZ Karlsruhe - Leibniz Institute for Information Infrastructure.  All rights reserved.
data_95406-ICSD
_database_code_ICSD 95406
_audit_creation_date 2003-10-01
_chemical_name_systematic 'Barium magnesium niobium oxide (1/0.33/0.67/3)'
_chemical_formula_structural 'Ba (Mg0.333 Nb0.667) O3'
_chemical_formula_sum 'Ba1 Mg0.333 Nb0.667 O3'
_chemical_name_structure_type Ba3SrTa2O9
_exptl_crystal_density_diffrn 6.22
_publ_section_title
'Structural investigations on Bax Pb1-x (Mg1/3 Nb2/3) O3 solid solutions'
loop_
_citation_id
_citation_journal_full
_citation_year
_citation_journal_volume
_citation_page_first
_citation_page_last
_citation_journal_id_ASTM
primary 'Japanese Journal of Applied Physics, Part 1' 2002 41 3010 3014 JAPNDE
loop_
_publ_author_name
'Joseph, J.'
Dias
'Vimala, T.M.'
'Murthy, V.R.K.'
_cell_length_a 5.7740(3)
_cell_length_b 5.7740(3)
_cell_length_c 7.0868(8)
_cell_angle_alpha 90
_cell_angle_beta 90
_cell_angle_gamma 120
_cell_volume 204.61
_cell_formula_units_Z 3
_symmetry_space_group_name_H-M 'P -3 m 1'
_symmetry_Int_Tables_number 164
_refine_ls_R_factor_all 0.0886
loop_
_symmetry_equiv_pos_site_id
_symmetry_equiv_pos_as_xyz
1 'x-y, -y, -z'
2 '-x, -x+y, -z'
3 'y, x, -z'
4 'x-y, x, -z'
5 'y, -x+y, -z'
6 '-x, -y, -z'
7 '-x+y, y, z'
8 'x, x-y, z'
9 '-y, -x, z'
10 '-x+y, -x, z'
11 '-y, x-y, z'
12 'x, y, z'
loop_
_atom_type_symbol
_atom_type_oxidation_number
Ba2+ 2
Mg2+ 2
Nb5+ 5
O2- -2
loop_
_atom_site_label
_atom_site_type_symbol
_atom_site_symmetry_multiplicity
_atom_site_Wyckoff_symbol
_atom_site_fract_x
_atom_site_fract_y
_atom_site_fract_z
_atom_site_B_iso_or_equiv
_atom_site_occupancy
_atom_site_attached_hydrogens
Ba1 Ba2+ 1 a 0 0 0 0.60(15) 1. 0
Ba2 Ba2+ 2 d 0.3333 0.6667 0.671(1) 0.43(8) 1. 0
Mg1 Mg2+ 1 b 0 0 0.5 0.15(28) 1. 0
Nb1 Nb5+ 2 d 0.3333 0.6667 0.159(2) 0.34(10) 1. 0
O1 O2- 6 i 0.170(2) 0.830(2) 0.327(5) 0.91(55) 1. 0
O2 O2- 3 e 0.5 0 0 1.38(90) 1. 0
#End of TTdata_95406-ICSD