
data_95782-ICSD
_database_code_ICSD 95782
_audit_creation_date 2004-04-01
_chemical_name_systematic 'Triphosphorus(V) nitride - gamma'
_chemical_formula_structural 'P3 N5'
_chemical_formula_sum 'N5 P3'
_chemical_name_structure_type MoPt2
_exptl_crystal_density_diffrn 3.66
_cell_measurement_temperature 298.
_cell_length_a 12.8721(4)
_cell_length_b 2.61312(6)
_cell_length_c 4.4003(2)
_cell_angle_alpha 90
_cell_angle_beta 90
_cell_angle_gamma 90
_cell_volume 148.01
_cell_formula_units_Z 2
_symmetry_space_group_name_H-M 'I m m 2'
_symmetry_Int_Tables_number 44
_refine_ls_R_factor_all 0.048
loop_
_symmetry_equiv_pos_site_id
_symmetry_equiv_pos_as_xyz
1 'x, -y, z'
2 '-x, y, z'
3 '-x, -y, z'
4 'x, y, z'
5 'x+1/2, -y+1/2, z+1/2'
6 '-x+1/2, y+1/2, z+1/2'
7 '-x+1/2, -y+1/2, z+1/2'
8 'x+1/2, y+1/2, z+1/2'
loop_
_atom_type_symbol
_atom_type_oxidation_number
P5+ 5
N3- -3
loop_
_atom_site_label
_atom_site_type_symbol
_atom_site_symmetry_multiplicity
_atom_site_Wyckoff_symbol
_atom_site_fract_x
_atom_site_fract_y
_atom_site_fract_z
_atom_site_B_iso_or_equiv
_atom_site_occupancy
_atom_site_attached_hydrogens
P1 P5+ 2 a 0 0 0.311(1) 0.0274(14) 1. 0
P2 P5+ 4 c 0.8191(2) 0.5 -0.0420(9) 0.0360(10) 1. 0
N1 N3- 2 b 0 0.5 0.515(2) 0.0062(29) 1. 0
N2 N3- 4 c 0.8953(4) 0 0.0768(9) 0.0214(19) 1. 0
N3 N3- 4 c 0.7265(6) 0.5 0.219(1) 0.0263(25) 1. 0
