
#(C) 2017 by FIZ Karlsruhe - Leibniz Institute for Information Infrastructure.  All rights reserved.
data_95842-ICSD
_database_code_ICSD 95842
_audit_creation_date 2004-04-01
_chemical_name_systematic 'Titanium rhodium antimonide (5/1/2)'
_chemical_formula_structural 'Ti5 Rh Sb2'
_chemical_formula_sum 'Rh1 Sb2 Ti5'
_chemical_name_structure_type Mo5Si3
_exptl_crystal_density_diffrn 6.64
_publ_section_title

;
Ternary transition metal antimonides T5 T'1-x Sb2+x (T = Ti, Zr, Hf; T' = Fe,
Co, Ni, Cu, Ru, Rh, Pd, Cd) with Nb5 Si Sn2 (ordered W5 Si3, filled V4 Si Sb2)
type structure
;
loop_
_citation_id
_citation_journal_full
_citation_year
_citation_journal_volume
_citation_page_first
_citation_page_last
_citation_journal_id_ASTM
primary 'Zeitschrift fuer Anorganische und Allgemeine Chemie (1950) (DE)' 2002
628 337 343 ZAACAB
loop_
_publ_author_name
'Kaiser, J.W.'
'Jeitschko, W.'
_cell_length_a 10.486(1)
_cell_length_b 10.486(1)
_cell_length_c 5.314(1)
_cell_angle_alpha 90
_cell_angle_beta 90
_cell_angle_gamma 90
_cell_volume 584.31
_cell_formula_units_Z 4
_symmetry_space_group_name_H-M 'I 4/m c m'
_symmetry_Int_Tables_number 140
_refine_ls_R_factor_all 0.039
loop_
_symmetry_equiv_pos_site_id
_symmetry_equiv_pos_as_xyz
1 'y, x, -z+1/2'
2 '-y, -x, -z+1/2'
3 '-y, x, -z'
4 'y, -x, -z'
5 'x, -y, -z+1/2'
6 '-x, y, -z+1/2'
7 'x, y, -z'
8 '-x, -y, -z'
9 '-y, -x, z+1/2'
10 'y, x, z+1/2'
11 'y, -x, z'
12 '-y, x, z'
13 '-x, y, z+1/2'
14 'x, -y, z+1/2'
15 '-x, -y, z'
16 'x, y, z'
17 'y+1/2, x+1/2, -z'
18 '-y+1/2, -x+1/2, -z'
19 '-y+1/2, x+1/2, -z+1/2'
20 'y+1/2, -x+1/2, -z+1/2'
21 'x+1/2, -y+1/2, -z'
22 '-x+1/2, y+1/2, -z'
23 'x+1/2, y+1/2, -z+1/2'
24 '-x+1/2, -y+1/2, -z+1/2'
25 '-y+1/2, -x+1/2, z'
26 'y+1/2, x+1/2, z'
27 'y+1/2, -x+1/2, z+1/2'
28 '-y+1/2, x+1/2, z+1/2'
29 '-x+1/2, y+1/2, z'
30 'x+1/2, -y+1/2, z'
31 '-x+1/2, -y+1/2, z+1/2'
32 'x+1/2, y+1/2, z+1/2'
loop_
_atom_type_symbol
_atom_type_oxidation_number
Ti0+ 0
Rh0+ 0
Sb0+ 0
loop_
_atom_site_label
_atom_site_type_symbol
_atom_site_symmetry_multiplicity
_atom_site_Wyckoff_symbol
_atom_site_fract_x
_atom_site_fract_y
_atom_site_fract_z
_atom_site_B_iso_or_equiv
_atom_site_occupancy
_atom_site_attached_hydrogens
Ti1 Ti0+ 16 k 0.0692(6) 0.2105(6) 0 0.53(4) 1. 0
Ti2 Ti0+ 4 b 0 0.5 0.25 0.65(7) 1. 0
Rh1 Rh0+ 4 a 0 0 0.25 0.17(6) 1. 0
Sb1 Sb0+ 8 h 0.1635(2) 0.6635(2) 0 0.86(8) 1. 0
#End of TTdata_95842-ICSD