
data_96026-ICSD
_database_code_ICSD 96026
_audit_creation_date 2004-04-01
_audit_update_record 2008-08-01
_chemical_name_systematic 'Chromium silicide (1/2)'
_chemical_formula_structural 'Cr Si2'
_chemical_formula_sum 'Cr1 Si2'
_chemical_name_structure_type CrSi2
_exptl_crystal_density_diffrn 4.98
_cell_length_a 4.4283(1)
_cell_length_b 4.4283(1)
_cell_length_c 6.3680(9)
_cell_angle_alpha 90
_cell_angle_beta 90
_cell_angle_gamma 120
_cell_volume 108.15
_cell_formula_units_Z 3
_symmetry_space_group_name_H-M 'P 64 2 2'
_symmetry_Int_Tables_number 181
_refine_ls_R_factor_all 0.0108
loop_
_symmetry_equiv_pos_site_id
_symmetry_equiv_pos_as_xyz
1 'x, x-y, -z+2/3'
2 '-x+y, y, -z'
3 '-y, -x, -z+1/3'
4 '-x, -x+y, -z+2/3'
5 'x-y, -y, -z'
6 'y, x, -z+1/3'
7 'x-y, x, z+2/3'
8 'y, -x+y, z+1/3'
9 '-x, -y, z'
10 '-x+y, -x, z+2/3'
11 '-y, x-y, z+1/3'
12 'x, y, z'
loop_
_atom_type_symbol
_atom_type_oxidation_number
Cr0+ 0
Si0+ 0
loop_
_atom_site_label
_atom_site_type_symbol
_atom_site_symmetry_multiplicity
_atom_site_Wyckoff_symbol
_atom_site_fract_x
_atom_site_fract_y
_atom_site_fract_z
_atom_site_B_iso_or_equiv
_atom_site_occupancy
_atom_site_attached_hydrogens
Cr1 Cr0+ 3 c 0.5 0 0 . 1. 0
Si1 Si0+ 6 i 0.16578(3) 0.33156(6) 0 . 1. 0
