
data_96721-ICSD
_database_code_ICSD 96721
_audit_creation_date 2004-10-01
_chemical_name_systematic 'Titanium chromium phosphide'
_chemical_formula_structural 'Ti Cr P'
_chemical_formula_sum 'Cr1 P1 Ti1'
_chemical_name_structure_type ZrNiAl-Fe2P
_exptl_crystal_density_diffrn 5.59
_cell_length_a 6.3998(3)
_cell_length_b 6.3998(3)
_cell_length_c 3.2896(1)
_cell_angle_alpha 90
_cell_angle_beta 90
_cell_angle_gamma 120
_cell_volume 116.68
_cell_formula_units_Z 3
_symmetry_space_group_name_H-M 'P -6 2 m'
_symmetry_Int_Tables_number 189
_refine_ls_R_factor_all 0.029
loop_
_symmetry_equiv_pos_site_id
_symmetry_equiv_pos_as_xyz
1 '-x, -x+y, -z'
2 'x-y, -y, -z'
3 'y, x, -z'
4 '-x, -x+y, z'
5 'x-y, -y, z'
6 'y, x, z'
7 '-x+y, -x, -z'
8 '-y, x-y, -z'
9 'x, y, -z'
10 '-x+y, -x, z'
11 '-y, x-y, z'
12 'x, y, z'
loop_
_atom_type_symbol
_atom_type_oxidation_number
Ti0+ 0
Cr0+ 0
P0+ 0
loop_
_atom_site_label
_atom_site_type_symbol
_atom_site_symmetry_multiplicity
_atom_site_Wyckoff_symbol
_atom_site_fract_x
_atom_site_fract_y
_atom_site_fract_z
_atom_site_B_iso_or_equiv
_atom_site_occupancy
_atom_site_attached_hydrogens
Ti1 Ti0+ 3 g 0.5937(2) 0 0.5 . 1. 0
Cr1 Cr0+ 3 f 0.2536(2) 0 0 . 1. 0
P1 P0+ 1 b 0 0 0.5 . 1. 0
P2 P0+ 2 c 0.3333 0.6667 0 . 1. 0
loop_
_atom_site_aniso_label
_atom_site_aniso_type_symbol
_atom_site_aniso_B_11
_atom_site_aniso_B_22
_atom_site_aniso_B_33
_atom_site_aniso_B_12
_atom_site_aniso_B_13
_atom_site_aniso_B_23
Ti1 Ti0+ 0.47(3) 0.38(3) 0.40(3) 0.19(2) 0. 0.
Cr1 Cr0+ 0.39(20) 0.42(3) 0.55(3) 0.21(2) 0. 0.
P1 P0+ 0.59(5) 0.59(5) 0.44(5) 0.29(3) 0. 0.
P2 P0+ 0.57(3) 0.57(3) 0.28(4) 0.28(2) 0. 0.
