
#(C) 2017 by FIZ Karlsruhe - Leibniz Institute for Information Infrastructure.  All rights reserved.
data_971-ICSD
_database_code_ICSD 971
_audit_creation_date 1980-01-01
_audit_update_record 2011-08-01
_chemical_name_systematic 'Dicopper trimanganese(IV) oxide'
_chemical_formula_structural 'Cu2 Mn3 O8'
_chemical_formula_sum 'Cu2 Mn3 O8'
_chemical_name_structure_type Cd2Mn3O8
_exptl_crystal_density_diffrn 5.34
_publ_section_title 'Structure de Cu2 Mn3 O8'
loop_
_citation_id
_citation_journal_full
_citation_year
_citation_journal_volume
_citation_page_first
_citation_page_last
_citation_journal_id_ASTM
primary 'Acta Crystallographica B (24,1968-38,1982)' 1977 33 1896 1900 ACBCAR
loop_
_publ_author_name
'Riou, A.'
'Lecerf, A.'
_cell_length_a 9.695(7)
_cell_length_b 5.635(3)
_cell_length_c 4.912(4)
_cell_angle_alpha 90.
_cell_angle_beta 103.35(7)
_cell_angle_gamma 90.
_cell_volume 261.1
_cell_formula_units_Z 2
_symmetry_space_group_name_H-M 'C 1 2/m 1'
_symmetry_Int_Tables_number 12
_refine_ls_R_factor_all 0.096
loop_
_symmetry_equiv_pos_site_id
_symmetry_equiv_pos_as_xyz
1 '-x, y, -z'
2 '-x, -y, -z'
3 'x, -y, z'
4 'x, y, z'
5 '-x+1/2, y+1/2, -z'
6 '-x+1/2, -y+1/2, -z'
7 'x+1/2, -y+1/2, z'
8 'x+1/2, y+1/2, z'
loop_
_atom_type_symbol
_atom_type_oxidation_number
Mn4+ 4
Cu2+ 2
O2- -2
loop_
_atom_site_label
_atom_site_type_symbol
_atom_site_symmetry_multiplicity
_atom_site_Wyckoff_symbol
_atom_site_fract_x
_atom_site_fract_y
_atom_site_fract_z
_atom_site_B_iso_or_equiv
_atom_site_occupancy
_atom_site_attached_hydrogens
Mn1 Mn4+ 2 c 0 0 0.5 0.3 1. 0
Mn2 Mn4+ 4 g 0 0.2589(5) 0 0.21 1. 0
Cu1 Cu2+ 4 i 0.2803(2) 0 0.4307(4) 0.55 1. 0
O1 O2- 8 j 0.1188(7) 0.2272(18) 0.3665(14) 0.74 1. 0
O2 O2- 4 i 0.3964(10) 0 0.1113(19) 0.68 1. 0
O3 O2- 4 i 0.1021(10) 0 0.8634(19) 0.78 1. 0
#End of TTdata_971-ICSD