
#(C) 2017 by FIZ Karlsruhe - Leibniz Institute for Information Infrastructure.  All rights reserved.
data_97282-ICSD
_database_code_ICSD 97282
_audit_creation_date 2004-10-01
_chemical_name_systematic 'Lead(IV) dilead(II) tetraoxide - III'
_chemical_formula_structural 'Pb3 O4'
_chemical_formula_sum 'O4 Pb3'
_chemical_name_mineral Minium
_exptl_crystal_density_diffrn 11.33
_cell_measurement_temperature 295.
_cell_measurement_pressure 13300000.
_publ_section_title

;
Bulk moduli and high-pressure crystal structures of minium, Pb3 O4,determined
by X-ray powder diffraction
;
loop_
_citation_id
_citation_journal_full
_citation_year
_citation_journal_volume
_citation_page_first
_citation_page_last
_citation_journal_id_ASTM
primary 'American Mineralogist' 2003 88 996 1002 AMMIAY
loop_
_publ_author_name
'Dinnebier, R.E.'
'Carlson, S.'
'Hanfland, M.'
'Jansen, M.'
_cell_length_a 9.3812(3)
_cell_length_b 6.4610(3)
_cell_length_c 3.3168(1)
_cell_angle_alpha 90
_cell_angle_beta 90
_cell_angle_gamma 90
_cell_volume 201.04
_cell_formula_units_Z 2
_symmetry_space_group_name_H-M 'P b a m'
_symmetry_Int_Tables_number 55
_refine_ls_R_factor_all 0.025
loop_
_symmetry_equiv_pos_site_id
_symmetry_equiv_pos_as_xyz
1 'x+1/2, -y+1/2, z'
2 '-x+1/2, y+1/2, z'
3 'x, y, -z'
4 '-x, -y, -z'
5 '-x+1/2, y+1/2, -z'
6 'x+1/2, -y+1/2, -z'
7 '-x, -y, z'
8 'x, y, z'
loop_
_atom_type_symbol
_atom_type_oxidation_number
Pb2+ 2
Pb4+ 4
O2- -2
loop_
_atom_site_label
_atom_site_type_symbol
_atom_site_symmetry_multiplicity
_atom_site_Wyckoff_symbol
_atom_site_fract_x
_atom_site_fract_y
_atom_site_fract_z
_atom_site_B_iso_or_equiv
_atom_site_occupancy
_atom_site_attached_hydrogens
Pb1 Pb2+ 4 h 0.67564(17) 0.94970(32) 0.5 0.014(2) 1. 0
Pb2 Pb4+ 2 c 0 0.5 0 0.017(3) 1. 0
O1 O2- 4 g 0.3132(29) 0.3014(34) 0 0.042(7) 1. 0
O2 O2- 4 h 0.5841(23) 0.3108(22) 0.5 0.042(7) 1. 0
#End of TTdata_97282-ICSD