
data_97539-ICSD
_database_code_ICSD 97539
_audit_creation_date 2004-10-01
_chemical_name_systematic 'Tribarium chromium(IV) sulfide'
_chemical_formula_structural 'Ba3 Cr S5'
_chemical_formula_sum 'Ba3 Cr1 S5'
_exptl_crystal_density_diffrn 4.65
_cell_measurement_temperature 296.
_cell_length_a 9.1208(3)
_cell_length_b 9.1208(3)
_cell_length_c 6.1930(3)
_cell_angle_alpha 90
_cell_angle_beta 90
_cell_angle_gamma 120
_cell_volume 446.17
_cell_formula_units_Z 2
_symmetry_space_group_name_H-M 'P 63 c m'
_symmetry_Int_Tables_number 185
_refine_ls_R_factor_all 0.022
loop_
_symmetry_equiv_pos_site_id
_symmetry_equiv_pos_as_xyz
1 'x, x-y, z+1/2'
2 '-x+y, y, z+1/2'
3 '-y, -x, z+1/2'
4 'x-y, x, z+1/2'
5 'y, -x+y, z+1/2'
6 '-x, -y, z+1/2'
7 '-x, -x+y, z'
8 'x-y, -y, z'
9 'y, x, z'
10 '-x+y, -x, z'
11 '-y, x-y, z'
12 'x, y, z'
loop_
_atom_type_symbol
_atom_type_oxidation_number
Ba2+ 2
Cr4+ 4
S2- -2
loop_
_atom_site_label
_atom_site_type_symbol
_atom_site_symmetry_multiplicity
_atom_site_Wyckoff_symbol
_atom_site_fract_x
_atom_site_fract_y
_atom_site_fract_z
_atom_site_B_iso_or_equiv
_atom_site_occupancy
_atom_site_attached_hydrogens
Ba1 Ba2+ 6 c 0.3840(1) 0 0.844(1) 1.78(2) 1. 0
Cr1 Cr4+ 2 a 0 0 0.103(3) 0.82(7) 1. 0
S1 S2- 4 b 0.6667 0.3333 0.039(1) 1.2(1) 1. 0
S2 S2- 6 c 0 0.7878(5) 0.856(4) 0.91(9) 1. 0
loop_
_atom_site_aniso_label
_atom_site_aniso_type_symbol
_atom_site_aniso_U_11
_atom_site_aniso_U_22
_atom_site_aniso_U_33
_atom_site_aniso_U_12
_atom_site_aniso_U_13
_atom_site_aniso_U_23
Ba1 Ba2+ 0.0170(5) 0.0440(9) 0.0155(5) 0.0220(5) 0.001(2) 0.
Cr1 Cr4+ 0.011(2) 0.011(2) 0.009(3) 0.0055(10) 0. 0.
S1 S2- 0.007(2) 0.007(2) 0.032(5) 0.0033(10) 0. 0.
S2 S2- 0.020(2) 0.010(2) 0.008(3) 0.010(1) 0. 0.005(6)
