
data_97760-ICSD
_database_code_ICSD 97760
_audit_creation_date 2004-10-01
_chemical_name_systematic 'Trisilver tetraselenophosphate(V)'
_chemical_formula_structural 'Ag3 (P Se4)'
_chemical_formula_sum 'Ag3 P1 Se4'
_chemical_name_structure_type Enargite-Cu3AsS4
_exptl_crystal_density_diffrn 6.82
_cell_length_a 7.689(4)
_cell_length_b 6.660(3)
_cell_length_c 6.379(4)
_cell_angle_alpha 90
_cell_angle_beta 90
_cell_angle_gamma 90
_cell_volume 326.66
_cell_formula_units_Z 2
_symmetry_space_group_name_H-M 'P m n 21'
_symmetry_Int_Tables_number 31
_refine_ls_R_factor_all 0.0606
loop_
_symmetry_equiv_pos_site_id
_symmetry_equiv_pos_as_xyz
1 'x+1/2, -y, z+1/2'
2 '-x+1/2, -y, z+1/2'
3 '-x, y, z'
4 'x, y, z'
loop_
_atom_type_symbol
_atom_type_oxidation_number
Ag1+ 1
P5+ 5
Se2- -2
loop_
_atom_site_label
_atom_site_type_symbol
_atom_site_symmetry_multiplicity
_atom_site_Wyckoff_symbol
_atom_site_fract_x
_atom_site_fract_y
_atom_site_fract_z
_atom_site_B_iso_or_equiv
_atom_site_occupancy
_atom_site_attached_hydrogens
Ag1 Ag1+ 2 a 0.5 0.35189(3) 0.49937(4) 0.03046(3) 1. 0
Ag2 Ag1+ 4 b 0.25360(2) 0.17207(2) 0.98640(2) 0.03817(4) 1. 0
P1 P5+ 2 a 0.5 0.67035(5) 0.9906(2) 0.0454(2) 1. 0
Se1 Se2- 2 a 0.5 0.68123(8) 0.65521(9) 0.05352(2) 1. 0
Se2 Se2- 2 a 0.5 0.35974(9) 0.13075(1) 0.06190(5) 1. 0
Se3 Se2- 4 b 0.2565(7) 0.13423(8) 0.63259(2) 0.0915(2) 1. 0
