
data_97995-ICSD
_database_code_ICSD 97995
_audit_creation_date 2004-10-01
_audit_update_record 2006-04-01
_chemical_name_systematic 'Potassium iodate(V) - I'
_chemical_formula_structural 'K (I O3)'
_chemical_formula_sum 'I1 K1 O3'
_chemical_name_structure_type FeBiO3
_exptl_crystal_density_diffrn 3.87
_cell_measurement_temperature 530.
_cell_length_a 6.3396(1)
_cell_length_b 6.3396(1)
_cell_length_c 7.9242(1)
_cell_angle_alpha 90
_cell_angle_beta 90
_cell_angle_gamma 120
_cell_volume 275.81
_cell_formula_units_Z 3
_symmetry_space_group_name_H-M 'R 3 m H'
_symmetry_Int_Tables_number 160
_refine_ls_R_factor_all 0.0171
loop_
_symmetry_equiv_pos_site_id
_symmetry_equiv_pos_as_xyz
1 '-x+y, y, z'
2 'x, x-y, z'
3 '-y, -x, z'
4 '-x+y, -x, z'
5 '-y, x-y, z'
6 'x, y, z'
7 '-x+y+2/3, y+1/3, z+1/3'
8 'x+2/3, x-y+1/3, z+1/3'
9 '-y+2/3, -x+1/3, z+1/3'
10 '-x+y+2/3, -x+1/3, z+1/3'
11 '-y+2/3, x-y+1/3, z+1/3'
12 'x+2/3, y+1/3, z+1/3'
13 '-x+y+1/3, y+2/3, z+2/3'
14 'x+1/3, x-y+2/3, z+2/3'
15 '-y+1/3, -x+2/3, z+2/3'
16 '-x+y+1/3, -x+2/3, z+2/3'
17 '-y+1/3, x-y+2/3, z+2/3'
18 'x+1/3, y+2/3, z+2/3'
loop_
_atom_type_symbol
_atom_type_oxidation_number
K1+ 1
I5+ 5
O2- -2
loop_
_atom_site_label
_atom_site_type_symbol
_atom_site_symmetry_multiplicity
_atom_site_Wyckoff_symbol
_atom_site_fract_x
_atom_site_fract_y
_atom_site_fract_z
_atom_site_B_iso_or_equiv
_atom_site_occupancy
_atom_site_attached_hydrogens
K1 K1+ 3 a 0 0 0.0093(9) . 1. 0
I1 I5+ 3 a 0 0 0.5 . 1. 0
O1 O2- 9 b 0.4790(5) 0.5210(5) 0.0652(3) . 1. 0
loop_
_atom_site_aniso_label
_atom_site_aniso_type_symbol
_atom_site_aniso_U_11
_atom_site_aniso_U_22
_atom_site_aniso_U_33
_atom_site_aniso_U_12
_atom_site_aniso_U_13
_atom_site_aniso_U_23
K1 K1+ 0.0504(7) 0.0504(7) 0.0598(15) 0.0252(4) 0. 0.
I1 I5+ 0.0243(2) 0.0243(2) 0.0212(2) 0.0121(1) 0. 0.
O1 O2- 0.096(2) 0.096(2) 0.062(3) 0.069(2) 0.018(1) -.018(1)
