
#(C) 2017 by FIZ Karlsruhe - Leibniz Institute for Information Infrastructure.  All rights reserved.
data_98088-ICSD
_database_code_ICSD 98088
_audit_creation_date 2004-10-01
_audit_update_record 2013-08-01
_chemical_name_systematic 'Iron diiron(III) oxide'
_chemical_formula_structural 'Fe3 O4'
_chemical_formula_sum 'Fe3 O4'
_chemical_name_structure_type Fe3O4(P2/c)
_chemical_name_mineral Magnetite
_exptl_crystal_density_diffrn 5.21
_cell_measurement_temperature 90.
_publ_section_title
'Charge ordered structure of magnetite Fe3 O4 below the Verwey transition'
loop_
_citation_id
_citation_journal_full
_citation_year
_citation_journal_volume
_citation_page_first
_citation_page_last
_citation_journal_id_ASTM
primary 'Physical Review, Serie 3. B - Condensed Matter (18,1978-)' 2002 66
214422-1 214422-15 PRBMDO
loop_
_publ_author_name
'Wright, J.P.'
'Attfield, J.P.'
'Radaelli, P.G.'
_cell_length_a 5.944407(14)
_cell_length_b 5.924701(17)
_cell_length_c 16.77515(14)
_cell_angle_alpha 90
_cell_angle_beta 90.2363(2)
_cell_angle_gamma 90
_cell_volume 590.8
_cell_formula_units_Z 8
_symmetry_space_group_name_H-M 'P 1 2/c 1'
_symmetry_Int_Tables_number 13
_refine_ls_R_factor_all 0.0487
loop_
_symmetry_equiv_pos_site_id
_symmetry_equiv_pos_as_xyz
1 'x, -y, z+1/2'
2 '-x, -y, -z'
3 '-x, y, -z+1/2'
4 'x, y, z'
loop_
_atom_type_symbol
_atom_type_oxidation_number
Fe3+ 3
Fe2+ 2.25
Fe2+ 2.75
Fe2+ 2.25
O2- -2
loop_
_atom_site_label
_atom_site_type_symbol
_atom_site_symmetry_multiplicity
_atom_site_Wyckoff_symbol
_atom_site_fract_x
_atom_site_fract_y
_atom_site_fract_z
_atom_site_B_iso_or_equiv
_atom_site_occupancy
_atom_site_attached_hydrogens
Fe1 Fe3+ 4 g 0.25 0.0034(4) 0.06366(7) 0.00005(4) 1. 0
Fe2 Fe3+ 4 g 0.25 0.5061(2) 0.18867(8) 0.00005(4) 1. 0
Fe3 Fe2+ 2 c 0 0.5 0 0.00070(3) 1. 0
Fe4 Fe2+ 2 b 0.5 0.5 0 0.00070(3) 1. 0
Fe5 Fe2+ 2 e 0 0.0096(3) 0.25 0.00070(3) 1. 0
Fe6 Fe2+ 2 f 0.5 0.0096(3) 0.25 0.00070(3) 1. 0
Fe7 Fe2+ 4 g 0.25 0.2659(2) 0.38010(9) 0.00070(3) 1. 0
Fe8 Fe2+ 4 g 0.25 0.7520(2) 0.37659(9) 0.00070(3) 1. 0
O1 O2- 4 g 0.25 0.2637(7) -0.0023(3) 0.00227(8) 1. 0
O2 O2- 4 g 0.25 0.7461(6) -0.0029(3) 0.00227(8) 1. 0
O3 O2- 4 g 0.25 0.2447(8) 0.2542(3) 0.00227(8) 1. 0
O4 O2- 4 g 0.25 0.7738(8) 0.2525(3) 0.00227(8) 1. 0
O5 O2- 4 g -0.0091(4) 0.0095(6) 0.1277(2) 0.00227(8) 1. 0
O6 O2- 4 g 0.4909(4) 0.0095(6) 0.3723(2) 0.00227(8) 1. 0
O7 O2- 4 g -0.0081(4) 0.5046(6) 0.1246(2) 0.00227(8) 1. 0
O8 O2- 4 g 0.4919(4) 0.5046(6) 0.3754(2) 0.00227(8) 1. 0
#End of TTdata_98088-ICSD