
#(C) 2017 by FIZ Karlsruhe - Leibniz Institute for Information Infrastructure.  All rights reserved.
data_98403-ICSD
_database_code_ICSD 98403
_audit_creation_date 2005-04-01
_chemical_name_systematic 'Potassium copper selenide (1/2/2)'
_chemical_formula_structural 'K Cu2 Se2'
_chemical_formula_sum 'Cu2 K1 Se2'
_exptl_crystal_density_diffrn 4.91
_publ_section_title

;
Bridging from (Th Cr2 Si2)-type materials to hexagonal dichalcogenides: an ab
initio and experimental study of K Cu2 Se2
;
loop_
_citation_id
_citation_journal_full
_citation_year
_citation_journal_volume
_citation_page_first
_citation_page_last
_citation_journal_id_ASTM
primary 'Physical Review, Serie 3. B - Condensed Matter (18,1978-)' 2003 67
134105-1 134105-8 PRBMDO
loop_
_publ_author_name
'Tiedje, O.'
'Krasovskii, E.E.'
'Schattke, W.'
'Stoll, P.'
'Naether, C.'
'Bensch, W.'
_cell_length_a 5.654(1)
_cell_length_b 5.682(1)
_cell_length_c 13.643(2)
_cell_angle_alpha 90
_cell_angle_beta 90
_cell_angle_gamma 90
_cell_volume 438.3
_cell_formula_units_Z 4
_symmetry_space_group_name_H-M 'F m m m'
_symmetry_Int_Tables_number 69
_refine_ls_R_factor_all 0.0202
loop_
_symmetry_equiv_pos_site_id
_symmetry_equiv_pos_as_xyz
1 'x, y, -z'
2 'x, -y, z'
3 '-x, y, z'
4 '-x, -y, -z'
5 '-x, -y, z'
6 '-x, y, -z'
7 'x, -y, -z'
8 'x, y, z'
9 'x, y+1/2, -z+1/2'
10 'x, -y+1/2, z+1/2'
11 '-x, y+1/2, z+1/2'
12 '-x, -y+1/2, -z+1/2'
13 '-x, -y+1/2, z+1/2'
14 '-x, y+1/2, -z+1/2'
15 'x, -y+1/2, -z+1/2'
16 'x, y+1/2, z+1/2'
17 'x+1/2, y, -z+1/2'
18 'x+1/2, -y, z+1/2'
19 '-x+1/2, y, z+1/2'
20 '-x+1/2, -y, -z+1/2'
21 '-x+1/2, -y, z+1/2'
22 '-x+1/2, y, -z+1/2'
23 'x+1/2, -y, -z+1/2'
24 'x+1/2, y, z+1/2'
25 'x+1/2, y+1/2, -z'
26 'x+1/2, -y+1/2, z'
27 '-x+1/2, y+1/2, z'
28 '-x+1/2, -y+1/2, -z'
29 '-x+1/2, -y+1/2, z'
30 '-x+1/2, y+1/2, -z'
31 'x+1/2, -y+1/2, -z'
32 'x+1/2, y+1/2, z'
loop_
_atom_type_symbol
_atom_type_oxidation_number
Se1- -1.5
Cu1+ 1
K1+ 1
loop_
_atom_site_label
_atom_site_type_symbol
_atom_site_symmetry_multiplicity
_atom_site_Wyckoff_symbol
_atom_site_fract_x
_atom_site_fract_y
_atom_site_fract_z
_atom_site_B_iso_or_equiv
_atom_site_occupancy
_atom_site_attached_hydrogens
Se1 Se1- 8 i 0 0 0.1428(1) 0.015(1) 1. 0
Cu1 Cu1+ 8 f 0.25 0.25 0.25 0.021(1) 1. 0
K1 K1+ 4 b 0.5 0 0 0.023(1) 1. 0
#End of TTdata_98403-ICSD