
data_98909-ICSD
_database_code_ICSD 98909
_audit_creation_date 2005-04-01
_chemical_name_systematic 'Dicopper(I) tetrathiotungstate - I'
_chemical_formula_structural 'Cu2 (W S4)'
_chemical_formula_sum 'Cu2 S4 W1'
_chemical_name_structure_type Cu2HgI4
_exptl_crystal_density_diffrn 4.89
_cell_length_a 5.44427(8)
_cell_length_b 5.44427(8)
_cell_length_c 10.0687(2)
_cell_angle_alpha 90
_cell_angle_beta 90
_cell_angle_gamma 90
_cell_volume 298.44
_cell_formula_units_Z 2
_symmetry_space_group_name_H-M 'I -4 2 m'
_symmetry_Int_Tables_number 121
_refine_ls_R_factor_all 0.0502
loop_
_symmetry_equiv_pos_site_id
_symmetry_equiv_pos_as_xyz
1 '-y, -x, z'
2 'y, x, z'
3 'y, -x, -z'
4 '-y, x, -z'
5 'x, -y, -z'
6 '-x, y, -z'
7 '-x, -y, z'
8 'x, y, z'
9 '-y+1/2, -x+1/2, z+1/2'
10 'y+1/2, x+1/2, z+1/2'
11 'y+1/2, -x+1/2, -z+1/2'
12 '-y+1/2, x+1/2, -z+1/2'
13 'x+1/2, -y+1/2, -z+1/2'
14 '-x+1/2, y+1/2, -z+1/2'
15 '-x+1/2, -y+1/2, z+1/2'
16 'x+1/2, y+1/2, z+1/2'
loop_
_atom_type_symbol
_atom_type_oxidation_number
W6+ 6
Cu1+ 1
S2- -2
loop_
_atom_site_label
_atom_site_type_symbol
_atom_site_symmetry_multiplicity
_atom_site_Wyckoff_symbol
_atom_site_fract_x
_atom_site_fract_y
_atom_site_fract_z
_atom_site_B_iso_or_equiv
_atom_site_occupancy
_atom_site_attached_hydrogens
W1 W6+ 2 a 0 0 0 0.0397(6) 1. 0
Cu1 Cu1+ 4 c 0.5 0 0 0.0477(6) 1. 0
S1 S2- 8 i 0.2381(3) 0.2381(3) 0.1189(6) 0.0418(6) 1. 0
