
data_99464-ICSD
_database_code_ICSD 99464
_audit_creation_date 2005-04-01
_chemical_name_systematic 'Selenium oxide - beta'
_chemical_formula_structural 'Se O2'
_chemical_formula_sum 'O2 Se1'
_exptl_crystal_density_diffrn 4.32
_cell_measurement_temperature 200.
_cell_length_a 5.0722(1)
_cell_length_b 4.4704(1)
_cell_length_c 7.5309(2)
_cell_angle_alpha 90
_cell_angle_beta 90
_cell_angle_gamma 90
_cell_volume 170.76
_cell_formula_units_Z 4
_symmetry_space_group_name_H-M 'P m c 21'
_symmetry_Int_Tables_number 26
_refine_ls_R_factor_all 0.0732
loop_
_symmetry_equiv_pos_site_id
_symmetry_equiv_pos_as_xyz
1 'x, -y, z+1/2'
2 '-x, -y, z+1/2'
3 '-x, y, z'
4 'x, y, z'
loop_
_atom_type_symbol
_atom_type_oxidation_number
Se4+ 4
O2- -2
loop_
_atom_site_label
_atom_site_type_symbol
_atom_site_symmetry_multiplicity
_atom_site_Wyckoff_symbol
_atom_site_fract_x
_atom_site_fract_y
_atom_site_fract_z
_atom_site_B_iso_or_equiv
_atom_site_occupancy
_atom_site_attached_hydrogens
Se1 Se4+ 2 b 0.5 0.2516(6) 0 0.78(5) 1. 0
Se2 Se4+ 2 a 0 0.1219(6) 0.3748(5) 0.73(5) 1. 0
O1 O2- 2 a 0 0.746(4) 0.672(2) 0.8(3) 1. 0
O2 O2- 4 c 0.247(2) 0.152(2) 0.841(1) 1.0(2) 1. 0
O3 O2- 2 b 0.5 0.620(3) -0.039(2) 0.9(3) 1. 0
