
#(C) 2017 by FIZ Karlsruhe - Leibniz Institute for Information Infrastructure.  All rights reserved.
data_99577-ICSD
_database_code_ICSD 99577
_audit_creation_date 2005-04-01
_chemical_name_systematic 'Zirconium chromium silicide (2/4/5)'
_chemical_formula_structural 'Zr2 Cr4 Si5'
_chemical_formula_sum 'Cr4 Si5 Zr2'
_chemical_name_structure_type V6Si5
_exptl_crystal_density_diffrn 5.73
_publ_section_title

;
Ternary silicides M2 Cr4 Si5 (M= Ti, Zr, Hf): filled variants of the Ta4 Si
Te4 structure type
;
loop_
_citation_id
_citation_journal_full
_citation_year
_citation_journal_volume
_citation_page_first
_citation_page_last
_citation_journal_id_ASTM
primary 'Journal of Solid State Chemistry' 2004 177 2523 2529 JSSCBI
loop_
_publ_author_name
'Crerar, S.J.'
'Mar, A.'
_cell_length_a 7.6354(12)
_cell_length_b 16.125(3)
_cell_length_c 5.0008(8)
_cell_angle_alpha 90
_cell_angle_beta 90
_cell_angle_gamma 90
_cell_volume 615.7
_cell_formula_units_Z 4
_symmetry_space_group_name_H-M 'I b a m'
_symmetry_Int_Tables_number 72
_refine_ls_R_factor_all 0.038
loop_
_symmetry_equiv_pos_site_id
_symmetry_equiv_pos_as_xyz
1 '-x, y, z+1/2'
2 'x, -y, z+1/2'
3 'x, y, -z'
4 '-x, -y, -z'
5 'x, -y, -z+1/2'
6 '-x, y, -z+1/2'
7 '-x, -y, z'
8 'x, y, z'
9 '-x+1/2, y+1/2, z'
10 'x+1/2, -y+1/2, z'
11 'x+1/2, y+1/2, -z+1/2'
12 '-x+1/2, -y+1/2, -z+1/2'
13 'x+1/2, -y+1/2, -z'
14 '-x+1/2, y+1/2, -z'
15 '-x+1/2, -y+1/2, z+1/2'
16 'x+1/2, y+1/2, z+1/2'
loop_
_atom_type_symbol
_atom_type_oxidation_number
Zr0+ 0
Cr0+ 0
Si0+ 0
loop_
_atom_site_label
_atom_site_type_symbol
_atom_site_symmetry_multiplicity
_atom_site_Wyckoff_symbol
_atom_site_fract_x
_atom_site_fract_y
_atom_site_fract_z
_atom_site_B_iso_or_equiv
_atom_site_occupancy
_atom_site_attached_hydrogens
Zr1 Zr0+ 8 j 0.37874(12) 0.35863(5) 0 0.0033(3) 1. 0
Cr1 Cr0+ 8 j 0.2529(2) 0.06119(9) 0 0.0040(4) 1. 0
Cr2 Cr0+ 8 g 0 0.30889(9) 0.25 0.0043(4) 1. 0
Si1 Si0+ 8 j 0.0736(4) 0.43587(16) 0 0.0062(6) 1. 0
Si2 Si0+ 8 j 0.2070(4) 0.21121(16) 0 0.0047(6) 1. 0
Si3 Si0+ 4 a 0 0 0.25 0.0027(8) 1. 0
#End of TTdata_99577-ICSD