
#(C) 2017 by FIZ Karlsruhe - Leibniz Institute for Information Infrastructure.  All rights reserved.
data_100024-ICSD
_database_code_ICSD 100024
_audit_creation_date 1980-01-01
_audit_update_record 2000-07-15
_chemical_name_systematic 'Barium manganese antimonide (1/1/2)'
_chemical_formula_structural 'Ba Mn Sb2'
_chemical_formula_sum 'Ba1 Mn1 Sb2'
_chemical_name_structure_type CuSmP2
_exptl_crystal_density_diffrn 5.8
_publ_section_title
'Darstellung und Kristallstruktur von Ba Mn Sb2, Sr Mn Bi2 und Ba Mn Bi2'
loop_
_citation_id
_citation_journal_full
_citation_year
_citation_journal_volume
_citation_page_first
_citation_page_last
_citation_journal_id_ASTM
primary

;
Zeitschrift fuer Naturforschung, Teil B. Anorganische Chemie, Organische
Chemie (2,1947-32,1977)
; 1977 32 383 386 ZENBAX
loop_
_publ_author_name
'Cordier, G.'
'Schaefer, H.'
_cell_length_a 4.53(1)
_cell_length_b 4.53(1)
_cell_length_c 24.34(3)
_cell_angle_alpha 90.
_cell_angle_beta 90.
_cell_angle_gamma 90.
_cell_volume 499.48
_cell_formula_units_Z 4
_symmetry_space_group_name_H-M 'I 4/m m m'
_symmetry_Int_Tables_number 139
_refine_ls_R_factor_all 0.118
loop_
_symmetry_equiv_pos_site_id
_symmetry_equiv_pos_as_xyz
1 'y, x, -z'
2 '-y, -x, -z'
3 '-y, x, -z'
4 'y, -x, -z'
5 '-x, y, -z'
6 'x, -y, -z'
7 'x, y, -z'
8 '-x, -y, -z'
9 '-y, -x, z'
10 'y, x, z'
11 'y, -x, z'
12 '-y, x, z'
13 'x, -y, z'
14 '-x, y, z'
15 '-x, -y, z'
16 'x, y, z'
17 'y+1/2, x+1/2, -z+1/2'
18 '-y+1/2, -x+1/2, -z+1/2'
19 '-y+1/2, x+1/2, -z+1/2'
20 'y+1/2, -x+1/2, -z+1/2'
21 '-x+1/2, y+1/2, -z+1/2'
22 'x+1/2, -y+1/2, -z+1/2'
23 'x+1/2, y+1/2, -z+1/2'
24 '-x+1/2, -y+1/2, -z+1/2'
25 '-y+1/2, -x+1/2, z+1/2'
26 'y+1/2, x+1/2, z+1/2'
27 'y+1/2, -x+1/2, z+1/2'
28 '-y+1/2, x+1/2, z+1/2'
29 'x+1/2, -y+1/2, z+1/2'
30 '-x+1/2, y+1/2, z+1/2'
31 '-x+1/2, -y+1/2, z+1/2'
32 'x+1/2, y+1/2, z+1/2'
loop_
_atom_type_symbol
_atom_type_oxidation_number
Ba0+ 0
Mn0+ 0
Sb0+ 0
loop_
_atom_site_label
_atom_site_type_symbol
_atom_site_symmetry_multiplicity
_atom_site_Wyckoff_symbol
_atom_site_fract_x
_atom_site_fract_y
_atom_site_fract_z
_atom_site_B_iso_or_equiv
_atom_site_occupancy
_atom_site_attached_hydrogens
Ba1 Ba0+ 4 e 0 0 0.1123(3) . 1. 0
Mn1 Mn0+ 4 d 0 0.5 0.25 . 1. 0
Sb1 Sb0+ 4 c 0 0.5 0 . 1. 0
Sb2 Sb0+ 4 e 0 0 0.3179(3) . 1. 0
loop_
_atom_site_aniso_label
_atom_site_aniso_type_symbol
_atom_site_aniso_U_11
_atom_site_aniso_U_22
_atom_site_aniso_U_33
_atom_site_aniso_U_12
_atom_site_aniso_U_13
_atom_site_aniso_U_23
Ba1 Ba0+ 0.0198(25) 0.0198(25) 0.0372(30) 0 0 0
Mn1 Mn0+ 0.0277(68) 0.0277(68) 0.0411(73) 0 0 0
Sb1 Sb0+ 0.0229(42) 0.0271(45) 0.0395(32) 0 0 0
Sb2 Sb0+ 0.0198(28) 0.0198(28) 0.0457(38) 0 0 0
#End of TTdata_100024-ICSD