
#(C) 2017 by FIZ Karlsruhe - Leibniz Institute for Information Infrastructure.  All rights reserved.
data_100352-ICSD
_database_code_ICSD 100352
_audit_creation_date 1980-01-01
_audit_update_record 2009-08-01
_chemical_name_systematic 'Thallium iron telluride (1/3/3)'
_chemical_formula_structural 'Tl Fe3 Te3'
_chemical_formula_sum 'Fe3 Te3 Tl1'
_chemical_name_structure_type Fe3TlTe3
_exptl_crystal_density_diffrn 7.84
_publ_section_title 'Die Kristallstruktur von Tl Fe3 Te3'
loop_
_citation_id
_citation_journal_full
_citation_year
_citation_journal_volume
_citation_page_first
_citation_page_last
_citation_journal_id_ASTM
primary 'Monatshefte fuer Chemie' 1979 110 677 684 MOCMB7
loop_
_publ_author_name
'Klepp, K.O.'
'Boller, H.'
_cell_length_a 9.350(2)
_cell_length_b 9.350(2)
_cell_length_c 4.2230(7)
_cell_angle_alpha 90.
_cell_angle_beta 90.
_cell_angle_gamma 120.
_cell_volume 319.72
_cell_formula_units_Z 2
_symmetry_space_group_name_H-M 'P 63/m'
_symmetry_Int_Tables_number 176
_refine_ls_R_factor_all 0.048
loop_
_symmetry_equiv_pos_site_id
_symmetry_equiv_pos_as_xyz
1 '-x+y, -x, -z+1/2'
2 '-y, x-y, -z+1/2'
3 'x, y, -z+1/2'
4 'x-y, x, -z'
5 'y, -x+y, -z'
6 '-x, -y, -z'
7 'x-y, x, z+1/2'
8 'y, -x+y, z+1/2'
9 '-x, -y, z+1/2'
10 '-x+y, -x, z'
11 '-y, x-y, z'
12 'x, y, z'
loop_
_atom_type_symbol
_atom_type_oxidation_number
Tl1+ 1
Te2- -2
Fe1+ 1.67
loop_
_atom_site_label
_atom_site_type_symbol
_atom_site_symmetry_multiplicity
_atom_site_Wyckoff_symbol
_atom_site_fract_x
_atom_site_fract_y
_atom_site_fract_z
_atom_site_B_iso_or_equiv
_atom_site_occupancy
_atom_site_attached_hydrogens
Tl1 Tl1+ 2 d 0.6667 0.3333 0.25 . 1. 0
Te1 Te2- 6 h 0.0462(2) 0.3570(2) 0.25 . 1. 0
Fe1 Fe1+ 6 h 0.1701(3) 0.1493(3) 0.25 . 1. 0
loop_
_atom_site_aniso_label
_atom_site_aniso_type_symbol
_atom_site_aniso_U_11
_atom_site_aniso_U_22
_atom_site_aniso_U_33
_atom_site_aniso_U_12
_atom_site_aniso_U_13
_atom_site_aniso_U_23
Tl1 Tl1+ 0.0248(9) 0.0248(9) 0.0441(11) 0.0124(4) 0 0
Te1 Te2- 0.0175(8) 0.0125(8) 0.0199(9) 0.0080(5) 0 0
Fe1 Fe1+ 0.0115(12) 0.0139(13) 0.0109(13) 0.0069(10) 0 0
#End of TTdata_100352-ICSD