
data_100316-ICSD
_database_code_ICSD 100316
_audit_creation_date 1980-12-31
_audit_update_record 2003-04-01
_chemical_name_systematic 'Mercury sulfate(VI)'
_chemical_formula_structural 'Hg (S O4)'
_chemical_formula_sum 'Hg1 O4 S1'
_chemical_name_structure_type CdSO4
_exptl_crystal_density_diffrn 6.52
_cell_length_a 4.7779(2)
_cell_length_b 4.8119(2)
_cell_length_c 6.5720(3)
_cell_angle_alpha 90.
_cell_angle_beta 90.
_cell_angle_gamma 90.
_cell_volume 151.1
_cell_formula_units_Z 2
_symmetry_space_group_name_H-M 'P n 21 m'
_symmetry_Int_Tables_number 31
_refine_ls_R_factor_all 0.033
loop_
_symmetry_equiv_pos_site_id
_symmetry_equiv_pos_as_xyz
1 '-x, y+1/2, z+1/2'
2 '-x, y+1/2, -z+1/2'
3 'x, y, -z'
4 'x, y, z'
loop_
_atom_type_symbol
_atom_type_oxidation_number
Hg2+ 2
S6+ 6
O2- -2
loop_
_atom_site_label
_atom_site_type_symbol
_atom_site_symmetry_multiplicity
_atom_site_Wyckoff_symbol
_atom_site_fract_x
_atom_site_fract_y
_atom_site_fract_z
_atom_site_B_iso_or_equiv
_atom_site_occupancy
_atom_site_attached_hydrogens
Hg1 Hg2+ 2 a 0.17242(6) 0.25 0 . 1. 0
S1 S6+ 2 a 0.6745(3) 0.7444(12) 0 . 1. 0
O1 O2- 2 a 0.3709(16) 0.682(2) 0 . 1. 0
O2 O2- 2 a 0.7124(16) 0.0393(15) 0 . 1. 0
O3 O2- 4 b 0.8104(11) 0.6061(13) 0.1791(8) . 1. 0
loop_
_atom_site_aniso_label
_atom_site_aniso_type_symbol
_atom_site_aniso_beta_11
_atom_site_aniso_beta_22
_atom_site_aniso_beta_33
_atom_site_aniso_beta_12
_atom_site_aniso_beta_13
_atom_site_aniso_beta_23
Hg1 Hg2+ 0.01306(11) 0.01278(11) 0.00484(5) -.00287(19) 0 0
S1 S6+ 0.00747(39) 0.01099(47) 0.00404(20) -.00214(84) 0 0
O1 O2- 0.0081(18) 0.00164(22) 0.0149(19) -.0027(16) 0 0
O2 O2- 0.0132(22) 0.0076(18) 0.0116(16) -.0010(14) 0 0
O3 O2- 0.0173(17) 0.0168(16) 0.0047(7) 0.0042(13) -.0016(9) 0.0005(8)
