
#(C) 2017 by FIZ Karlsruhe - Leibniz Institute for Information Infrastructure.  All rights reserved.
data_100695-ICSD
_database_code_ICSD 100695
_audit_creation_date 1980-12-31
_audit_update_record 2007-04-01
_chemical_name_systematic 'Indium niobium oxide'
_chemical_formula_structural 'In Nb O4'
_chemical_formula_sum 'In1 Nb1 O4'
_chemical_name_structure_type Wolframite-NiWO4
_exptl_crystal_density_diffrn 6.29
_publ_section_title

;
On the structural and luminescent properties of the In Ta(1-x) Nb(x) O4 system
;
loop_
_citation_id
_citation_journal_full
_citation_year
_citation_journal_volume
_citation_page_first
_citation_page_last
_citation_journal_id_ASTM
primary 'Materials Research Bulletin' 1980 15 607 612 MRBUAC
loop_
_publ_author_name
'Brixner, L.H.'
'Chen, H.-Y.'
_cell_length_a 5.1440(8)
_cell_length_b 5.7709(6)
_cell_length_c 4.8355(6)
_cell_angle_alpha 90.
_cell_angle_beta 91.13(1)
_cell_angle_gamma 90.
_cell_volume 143.52
_cell_formula_units_Z 2
_symmetry_space_group_name_H-M 'P 1 2/a 1'
_symmetry_Int_Tables_number 13
_refine_ls_R_factor_all 0.029
loop_
_symmetry_equiv_pos_site_id
_symmetry_equiv_pos_as_xyz
1 'x+1/2, -y, z'
2 '-x, -y, -z'
3 '-x+1/2, y, -z'
4 'x, y, z'
loop_
_atom_type_symbol
_atom_type_oxidation_number
In3+ 3
Nb5+ 5
O2- -2
loop_
_atom_site_label
_atom_site_type_symbol
_atom_site_symmetry_multiplicity
_atom_site_Wyckoff_symbol
_atom_site_fract_x
_atom_site_fract_y
_atom_site_fract_z
_atom_site_B_iso_or_equiv
_atom_site_occupancy
_atom_site_attached_hydrogens
In1 In3+ 2 f 0.25 0.3175(1) 0.5 . 1. 0
Nb1 Nb5+ 2 e 0.25 0.8221(2) 0 . 1. 0
O1 O2- 4 g 0.438(1) 0.102(1) 0.217(1) . 1. 0
O2 O2- 4 g 0.901(1) 0.382(1) 0.260(1) . 1. 0
loop_
_atom_site_aniso_label
_atom_site_aniso_type_symbol
_atom_site_aniso_beta_11
_atom_site_aniso_beta_22
_atom_site_aniso_beta_33
_atom_site_aniso_beta_12
_atom_site_aniso_beta_13
_atom_site_aniso_beta_23
In1 In3+ 0.00(1) 0.0016 0.0021 0 0.0001 0
Nb1 Nb5+ 0.00(2) 0.0013 0.0016 0 0.0001 0
O1 O2- 0.00(9) 0.0018 0.0023 0 0.0001 0
O2 O2- 0.00(9) 0.0017 0.0022 0 0.0001 0
#End of TTdata_100695-ICSD