
#(C) 2017 by FIZ Karlsruhe - Leibniz Institute for Information Infrastructure.  All rights reserved.
data_100782-ICSD
_database_code_ICSD 100782
_audit_creation_date 1980-12-31
_chemical_name_systematic 'Tripotassium vanadium bis(vanadate)'
_chemical_formula_structural 'K3 V (V O4)2'
_chemical_formula_sum 'K3 O8 V3'
_chemical_name_structure_type K3Na(SO4)2
_exptl_crystal_density_diffrn 3.23
_publ_section_title

;
High pressure synthesis of K3 V (V O4)2, a new compound with Glaserite type
structure
;
loop_
_citation_id
_citation_journal_full
_citation_year
_citation_journal_volume
_citation_page_first
_citation_page_last
_citation_journal_id_ASTM
primary 'Materials Research Bulletin' 1980 15 1099 1104 MRBUAC
loop_
_publ_author_name
'Abriel, W.'
'Rau, F.'
'Range, K.J.'
_cell_length_a 5.651(6)
_cell_length_b 5.651(6)
_cell_length_c 7.392(7)
_cell_angle_alpha 90.
_cell_angle_beta 90.
_cell_angle_gamma 120.
_cell_volume 204.43
_cell_formula_units_Z 1
_symmetry_space_group_name_H-M 'P -3 m 1'
_symmetry_Int_Tables_number 164
_refine_ls_R_factor_all 0.063
loop_
_symmetry_equiv_pos_site_id
_symmetry_equiv_pos_as_xyz
1 'x-y, -y, -z'
2 '-x, -x+y, -z'
3 'y, x, -z'
4 'x-y, x, -z'
5 'y, -x+y, -z'
6 '-x, -y, -z'
7 '-x+y, y, z'
8 'x, x-y, z'
9 '-y, -x, z'
10 '-x+y, -x, z'
11 '-y, x-y, z'
12 'x, y, z'
loop_
_atom_type_symbol
_atom_type_oxidation_number
K1+ 1
V3+ 3
V5+ 5
O2- -2
loop_
_atom_site_label
_atom_site_type_symbol
_atom_site_symmetry_multiplicity
_atom_site_Wyckoff_symbol
_atom_site_fract_x
_atom_site_fract_y
_atom_site_fract_z
_atom_site_B_iso_or_equiv
_atom_site_occupancy
_atom_site_attached_hydrogens
K1 K1+ 1 a 0 0 0 3.29 1. 0
K2 K1+ 2 d 0.3333 0.6667 0.312(2) 1.5 1. 0
V1 V3+ 1 b 0 0 0.5 0.4 1. 0
V2 V5+ 2 d 0.3333 0.6667 0.739(1) 0.18 1. 0
O1 O2- 2 d 0.3333 0.6667 0.957(6) 3.95 1. 0
O2 O2- 6 i 0.163(4) -.163(4) 0.658(3) 1.73 1. 0
#End of TTdata_100782-ICSD