
#(C) 2017 by FIZ Karlsruhe - Leibniz Institute for Information Infrastructure.  All rights reserved.
data_100703-ICSD
_database_code_ICSD 100703
_audit_creation_date 1980-12-31
_audit_update_record 2012-02-01
_chemical_name_systematic 'Indium telluride iodide'
_chemical_formula_structural 'In Te I'
_chemical_formula_sum 'I1 In1 Te1'
_chemical_name_structure_type InTeI
_exptl_crystal_density_diffrn 5.25
_publ_section_title 'Die Kristallstrukturen von In Te I und In Se I'
loop_
_citation_id
_citation_journal_full
_citation_year
_citation_journal_volume
_citation_page_first
_citation_page_last
_citation_journal_id_ASTM
primary 'Materials Research Bulletin' 1980 15 753 762 MRBUAC
loop_
_publ_author_name
'Sawitzki, G.'
'Mueller, D.'
'Hahn, H.'
_cell_length_a 8.076(3)
_cell_length_b 7.731(4)
_cell_length_c 8.407(3)
_cell_angle_alpha 90.
_cell_angle_beta 117.03(2)
_cell_angle_gamma 90.
_cell_volume 467.56
_cell_formula_units_Z 4
_symmetry_space_group_name_H-M 'P 1 21/c 1'
_symmetry_Int_Tables_number 14
_refine_ls_R_factor_all 0.104
loop_
_symmetry_equiv_pos_site_id
_symmetry_equiv_pos_as_xyz
1 'x, -y+1/2, z+1/2'
2 '-x, -y, -z'
3 '-x, y+1/2, -z+1/2'
4 'x, y, z'
loop_
_atom_type_symbol
_atom_type_oxidation_number
In3+ 3
Te2- -2
I1- -1
loop_
_atom_site_label
_atom_site_type_symbol
_atom_site_symmetry_multiplicity
_atom_site_Wyckoff_symbol
_atom_site_fract_x
_atom_site_fract_y
_atom_site_fract_z
_atom_site_B_iso_or_equiv
_atom_site_occupancy
_atom_site_attached_hydrogens
In1 In3+ 4 e 0.0378(3) 0.1956(3) 0.3896(2) . 1. 0
Te1 Te2- 4 e -.1873(2) 0.3585(3) 0.0662(2) . 1. 0
I1 I1- 4 e 0.3400(3) 0.3867(3) 0.6053(3) . 1. 0
loop_
_atom_site_aniso_label
_atom_site_aniso_type_symbol
_atom_site_aniso_B_11
_atom_site_aniso_B_22
_atom_site_aniso_B_33
_atom_site_aniso_B_12
_atom_site_aniso_B_13
_atom_site_aniso_B_23
In1 In3+ 2.95(11) 2.28(11) 0.41(8) -.20(8) 1.05(7) 0.13(7)
Te1 Te2- 2.19(9) 2.44(10) 0.38(7) -.09(7) 0.86(6) 0.14(6)
I1 I1- 2.79(11) 3.44(13) 1.94(9) -.58(8) 1.15(8) -.75(8)
#End of TTdata_100703-ICSD