
#(C) 2017 by FIZ Karlsruhe - Leibniz Institute for Information Infrastructure.  All rights reserved.
data_100881-ICSD
_database_code_ICSD 100881
_audit_creation_date 2011-08-01
_chemical_name_systematic 'Cadmium phosphide iodide (2/3/1)'
_chemical_formula_structural 'Cd2 P3 I'
_chemical_formula_sum 'Cd2 I1 P3'
_chemical_name_structure_type Hg2P3Cl
_exptl_crystal_density_diffrn 5.19
_publ_section_title
'The synthesis and properties of Cd2 P3 Cl, Cd2 P3 Br, and Cd2 P3 I'
loop_
_citation_id
_citation_journal_full
_citation_year
_citation_journal_volume
_citation_page_first
_citation_page_last
_citation_journal_id_ASTM
primary 'Journal of Solid State Chemistry' 1972 5 71 74 JSSCBI
loop_
_publ_author_name
'Donohue, P.C.'
_cell_length_a 8.255(1)
_cell_length_b 9.304(1)
_cell_length_c 7.514(1)
_cell_angle_alpha 90.
_cell_angle_beta 99.66(5)
_cell_angle_gamma 90.
_cell_volume 568.93
_cell_formula_units_Z 4
_symmetry_space_group_name_H-M 'C 1 2/c 1'
_symmetry_Int_Tables_number 15
loop_
_symmetry_equiv_pos_site_id
_symmetry_equiv_pos_as_xyz
1 'x, -y, z+1/2'
2 '-x, -y, -z'
3 '-x, y, -z+1/2'
4 'x, y, z'
5 'x+1/2, -y+1/2, z+1/2'
6 '-x+1/2, -y+1/2, -z'
7 '-x+1/2, y+1/2, -z+1/2'
8 'x+1/2, y+1/2, z'
loop_
_atom_type_symbol
_atom_type_oxidation_number
Cd2+ 2
P1- -1
I1- -1
loop_
_atom_site_label
_atom_site_type_symbol
_atom_site_symmetry_multiplicity
_atom_site_Wyckoff_symbol
_atom_site_fract_x
_atom_site_fract_y
_atom_site_fract_z
_atom_site_B_iso_or_equiv
_atom_site_occupancy
_atom_site_attached_hydrogens
Cd1 Cd2+ 8 f 0.2451 0.3556 0.29 . 1. 0
P1 P1- 8 f 0.3757 0.0472 0.0307 . 1. 0
P2 P1- 4 e 0 0.7085 0.25 . 1. 0
I1 I1- 4 e 0 0.1264 0.25 . 1. 0
#End of TTdata_100881-ICSD