
#(C) 2017 by FIZ Karlsruhe - Leibniz Institute for Information Infrastructure.  All rights reserved.
data_10186-ICSD
_database_code_ICSD 10186
_audit_creation_date 1980-01-01
_audit_update_record 2008-08-01
_chemical_name_systematic 'Rubidium indium bis(molybdate) - alpha'
_chemical_formula_structural 'Rb In (Mo O4)2'
_chemical_formula_sum 'In1 Mo2 O8 Rb1'
_chemical_name_structure_type KAl(MoO4)2
_exptl_crystal_density_diffrn 3.87
_publ_section_title
'Trigonal binary tungstates and molybdates of alkali and trivalent elements'
loop_
_citation_id
_citation_journal_full
_citation_year
_citation_journal_volume
_citation_page_first
_citation_page_last
_citation_journal_id_ASTM
primary Kristallografiya 1972 17 1135 1139 KRISAJ
loop_
_publ_author_name
'Efremov, V.A.'
'Trunov, V.K.'
'Velikodnyi, Yu.A.'
_cell_length_a 5.817(3)
_cell_length_b 5.817(3)
_cell_length_c 7.623(3)
_cell_angle_alpha 90.
_cell_angle_beta 90.
_cell_angle_gamma 120.
_cell_volume 223.39
_cell_formula_units_Z 1
_symmetry_space_group_name_H-M 'P -3 m 1'
_symmetry_Int_Tables_number 164
_refine_ls_R_factor_all 0.0869
loop_
_symmetry_equiv_pos_site_id
_symmetry_equiv_pos_as_xyz
1 'x-y, -y, -z'
2 '-x, -x+y, -z'
3 'y, x, -z'
4 'x-y, x, -z'
5 'y, -x+y, -z'
6 '-x, -y, -z'
7 '-x+y, y, z'
8 'x, x-y, z'
9 '-y, -x, z'
10 '-x+y, -x, z'
11 '-y, x-y, z'
12 'x, y, z'
loop_
_atom_type_symbol
_atom_type_oxidation_number
In3+ 3
Rb1+ 1
Mo6+ 6
O2- -2
loop_
_atom_site_label
_atom_site_type_symbol
_atom_site_symmetry_multiplicity
_atom_site_Wyckoff_symbol
_atom_site_fract_x
_atom_site_fract_y
_atom_site_fract_z
_atom_site_B_iso_or_equiv
_atom_site_occupancy
_atom_site_attached_hydrogens
In1 In3+ 1 a 0 0 0 0.094 1. 0
Rb1 Rb1+ 1 b 0 0 0.5 0.432 1. 0
Mo1 Mo6+ 2 d 0.3333 0.6667 0.24013(8) 0.421 1. 0
O1 O2- 2 d 0.3333 0.6667 0.4935(4) 0.72 1. 0
O2 O2- 6 i 0.151(3) 0.302(5) 0.1738(18) 0.45 1. 0
#End of TTdata_10186-ICSD