
#(C) 2017 by FIZ Karlsruhe - Leibniz Institute for Information Infrastructure.  All rights reserved.
data_10196-ICSD
_database_code_ICSD 10196
_audit_creation_date 1980-01-01
_chemical_name_systematic 'Thallium borate'
_chemical_formula_structural 'Tl3 B O3'
_chemical_formula_sum 'B1 O3 Tl3'
_chemical_name_structure_type Tl3BO3
_exptl_crystal_density_diffrn 7.93
_publ_section_title

;
Role stereochimique du doublet solitaire du thallium I dans la structure
cristalline de Tl3 B O3
;
loop_
_citation_id
_citation_journal_full
_citation_year
_citation_journal_volume
_citation_page_first
_citation_page_last
_citation_journal_id_ASTM
primary

;
Comptes Rendus Hebdomadaires des Seances de l'Academie des Sciences, Serie C,
Sciences Chimiques (1966-)
; 1973 276 177 179 CHDCAQ
loop_
_publ_author_name
'Marchand, R.'
'Piffard, Y.'
'Tournoux, M.'
_cell_length_a 9.275(5)
_cell_length_b 9.275(5)
_cell_length_c 3.775(2)
_cell_angle_alpha 90.
_cell_angle_beta 90.
_cell_angle_gamma 120.
_cell_volume 281.24
_cell_formula_units_Z 2
_symmetry_space_group_name_H-M 'P 63/m'
_symmetry_Int_Tables_number 176
_refine_ls_R_factor_all 0.057
loop_
_symmetry_equiv_pos_site_id
_symmetry_equiv_pos_as_xyz
1 '-x+y, -x, -z+1/2'
2 '-y, x-y, -z+1/2'
3 'x, y, -z+1/2'
4 'x-y, x, -z'
5 'y, -x+y, -z'
6 '-x, -y, -z'
7 'x-y, x, z+1/2'
8 'y, -x+y, z+1/2'
9 '-x, -y, z+1/2'
10 '-x+y, -x, z'
11 '-y, x-y, z'
12 'x, y, z'
loop_
_atom_type_symbol
_atom_type_oxidation_number
Tl1+ 1
O2- -2
B3+ 3
loop_
_atom_site_label
_atom_site_type_symbol
_atom_site_symmetry_multiplicity
_atom_site_Wyckoff_symbol
_atom_site_fract_x
_atom_site_fract_y
_atom_site_fract_z
_atom_site_B_iso_or_equiv
_atom_site_occupancy
_atom_site_attached_hydrogens
Tl1 Tl1+ 6 h 0.2966(3) 0.3556(3) 0.25 0.9 1. 0
O1 O2- 6 h 0.5675(40) 0.1615(40) 0.25 0.5 1. 0
B1 B3+ 2 d 0.6667 0.3333 0.25 . 1. 0
#End of TTdata_10196-ICSD