
#(C) 2017 by FIZ Karlsruhe - Leibniz Institute for Information Infrastructure.  All rights reserved.
data_1024-ICSD
_database_code_ICSD 1024
_audit_creation_date 1980-01-01
_audit_update_record 2007-04-01
_chemical_name_systematic 'Nickel bismuth selenide (3/2/2)'
_chemical_formula_structural 'Ni3 Bi2 Se2'
_chemical_formula_sum 'Bi2 Ni3 Se2'
_chemical_name_structure_type Ni3Bi2Se2
_exptl_crystal_density_diffrn 9.21
_publ_section_title 'Die Kristallstruktur von Ni3 Bi2 Se2'
loop_
_citation_id
_citation_journal_full
_citation_year
_citation_journal_volume
_citation_page_first
_citation_page_last
_citation_journal_id_ASTM
primary Naturwissenschaften 1977 64 145 145 NATWAY
loop_
_publ_author_name
'Clauss, A.'
_cell_length_a 11.224(7)
_cell_length_b 8.188(2)
_cell_length_c 8.100(5)
_cell_angle_alpha 90.
_cell_angle_beta 133.24(10)
_cell_angle_gamma 90.
_cell_volume 542.29
_cell_formula_units_Z 4
_symmetry_space_group_name_H-M 'C 1 2/m 1'
_symmetry_Int_Tables_number 12
_refine_ls_R_factor_all 0.058
loop_
_symmetry_equiv_pos_site_id
_symmetry_equiv_pos_as_xyz
1 '-x, y, -z'
2 '-x, -y, -z'
3 'x, -y, z'
4 'x, y, z'
5 '-x+1/2, y+1/2, -z'
6 '-x+1/2, -y+1/2, -z'
7 'x+1/2, -y+1/2, z'
8 'x+1/2, y+1/2, z'
loop_
_atom_type_symbol
_atom_type_oxidation_number
Bi0+ 0
Se0+ 0
Ni0+ 0
loop_
_atom_site_label
_atom_site_type_symbol
_atom_site_symmetry_multiplicity
_atom_site_Wyckoff_symbol
_atom_site_fract_x
_atom_site_fract_y
_atom_site_fract_z
_atom_site_B_iso_or_equiv
_atom_site_occupancy
_atom_site_attached_hydrogens
Bi1 Bi0+ 4 i 0.2509 0 0.2569 0.73 1. 0
Bi2 Bi0+ 4 i 0.2177 0 0.702 0.82 1. 0
Se1 Se0+ 8 j 0.0266 0.2831 0.8099 0.99 1. 0
Ni1 Ni0+ 4 f 0.25 0.25 0.5 1.25 1. 0
Ni2 Ni0+ 4 i 0.018 0 0.7904 1.22 1. 0
Ni3 Ni0+ 4 h 0 0.2737 0.5 1.17 1. 0
#End of TTdata_1024-ICSD