
#(C) 2017 by FIZ Karlsruhe - Leibniz Institute for Information Infrastructure.  All rights reserved.
data_102736-ICSD
_database_code_ICSD 102736
_audit_creation_date 2004-10-01
_audit_update_record 2012-02-01
_chemical_name_systematic 'Cobalt zinc (1/13)'
_chemical_formula_structural 'Co Zn13'
_chemical_formula_sum 'Co1 Zn13'
_chemical_name_structure_type CoZn13
_exptl_crystal_density_diffrn 7.53
_publ_section_title
'The structure of the zeta-phase in the transition metal-zinc alloy system'
loop_
_citation_id
_citation_journal_full
_citation_year
_citation_journal_volume
_citation_page_first
_citation_page_last
_citation_journal_id_ASTM
primary 'Acta Crystallographica (1,1948-23,1967)' 1962 15 608 612 ACCRA9
loop_
_publ_author_name
'Brown, P.J.'
_cell_length_a 13.306(33)
_cell_length_b 7.535(2)
_cell_length_c 4.992(12)
_cell_angle_alpha 90.
_cell_angle_beta 126.78
_cell_angle_gamma 90.
_cell_volume 400.87
_cell_formula_units_Z 2
_symmetry_space_group_name_H-M 'C 1 2/m 1'
_symmetry_Int_Tables_number 12
_refine_ls_R_factor_all 0.101
loop_
_symmetry_equiv_pos_site_id
_symmetry_equiv_pos_as_xyz
1 '-x, y, -z'
2 '-x, -y, -z'
3 'x, -y, z'
4 'x, y, z'
5 '-x+1/2, y+1/2, -z'
6 '-x+1/2, -y+1/2, -z'
7 'x+1/2, -y+1/2, z'
8 'x+1/2, y+1/2, z'
loop_
_atom_type_symbol
_atom_type_oxidation_number
Co0+ 0
Zn0+ 0
loop_
_atom_site_label
_atom_site_type_symbol
_atom_site_symmetry_multiplicity
_atom_site_Wyckoff_symbol
_atom_site_fract_x
_atom_site_fract_y
_atom_site_fract_z
_atom_site_B_iso_or_equiv
_atom_site_occupancy
_atom_site_attached_hydrogens
Co1 Co0+ 2 c 0 0 0.5 . 1. 0
Zn1 Zn0+ 2 a 0 0 0 . 1. 0
Zn2 Zn0+ 4 i 0.6110(5) 0 0.292(2) . 1. 0
Zn3 Zn0+ 4 i 0.2190(5) 0 0.077(2) . 1. 0
Zn4 Zn0+ 8 j 0.0780(5) 0.2975(7) 0.834(1) . 1. 0
Zn5 Zn0+ 8 j 0.1765(5) 0.1765(7) 0.553(1) . 1. 0
#End of TTdata_102736-ICSD