
#(C) 2017 by FIZ Karlsruhe - Leibniz Institute for Information Infrastructure.  All rights reserved.
data_10293-ICSD
_database_code_ICSD 10293
_audit_creation_date 1980-01-01
_audit_update_record 2015-02-01
_chemical_name_systematic 'Rhenium(IV) chloride - beta'
_chemical_formula_structural 'Re Cl4'
_chemical_formula_sum 'Cl4 Re1'
_exptl_crystal_density_diffrn 4.49
_publ_section_title

;
The chemistry of rhenium(IV) chloride. II. Structure of one of the polymorphs
(beta) and evidence for a new polymorph (gamma)
;
loop_
_citation_id
_citation_journal_full
_citation_year
_citation_journal_volume
_citation_page_first
_citation_page_last
_citation_journal_id_ASTM
primary 'Journal of the American Chemical Society' 1973 95 1159 1163 JACSAT
loop_
_publ_author_name
'Cotton, F.A.'
'de Boer, B.G.'
'Mester, Z.C.'
_cell_length_a 6.362(2)
_cell_length_b 6.273(2)
_cell_length_c 12.165(4)
_cell_angle_alpha 90.
_cell_angle_beta 93.15(5)
_cell_angle_gamma 90.
_cell_volume 484.76
_cell_formula_units_Z 4
_symmetry_space_group_name_H-M 'P 1 2/c 1'
_symmetry_Int_Tables_number 13
_refine_ls_R_factor_all 0.049
loop_
_symmetry_equiv_pos_site_id
_symmetry_equiv_pos_as_xyz
1 'x, -y, z+1/2'
2 '-x, -y, -z'
3 '-x, y, -z+1/2'
4 'x, y, z'
loop_
_atom_type_symbol
_atom_type_oxidation_number
Re4+ 4
Cl1- -1
loop_
_atom_site_label
_atom_site_type_symbol
_atom_site_symmetry_multiplicity
_atom_site_Wyckoff_symbol
_atom_site_fract_x
_atom_site_fract_y
_atom_site_fract_z
_atom_site_B_iso_or_equiv
_atom_site_occupancy
_atom_site_attached_hydrogens
Re1 Re4+ 4 g 0.18466(6) 0.26727(6) 0.31251(3) . 1. 0
Cl1 Cl1- 4 g 0.2520(5) 0.1129(5) 0.4787(3) . 1. 0
Cl2 Cl1- 4 g 0.1337(4) 0.4071(6) 0.1272(2) . 1. 0
Cl3 Cl1- 4 g 0.3569(5) 0.5683(5) 0.3653(3) . 1. 0
Cl4 Cl1- 2 e 0 -.0503(6) 0.25 . 1. 0
Cl5 Cl1- 2 f 0.5 0.0930(7) 0.25 . 1. 0
loop_
_atom_site_aniso_label
_atom_site_aniso_type_symbol
_atom_site_aniso_B_11
_atom_site_aniso_B_22
_atom_site_aniso_B_33
_atom_site_aniso_B_12
_atom_site_aniso_B_13
_atom_site_aniso_B_23
Re1 Re4+ 0.77(2) 1.13(2) 1.12(2) 0.00(1) 0.17(1) 0.00(1)
Cl1 Cl1- 2.2(1) 2.5(1) 1.7(1) 0.0(1) 0.0(1) 0.5(1)
Cl2 Cl1- 1.1(1) 2.7(1) 1.6(1) -.5(1) 0.4(1) 0.6(1)
Cl3 Cl1- 1.8(1) 1.6(1) 2.3(1) -.3(1) 0.2(1) -.5(1)
Cl4 Cl1- 1.4(2) 1.3(2) 2.7(2) 0 -.2(1) 0
Cl5 Cl1- 0.9(1) 1.5(2) 3.1(2) 0 0.9(1) 0
#End of TTdata_10293-ICSD