
#(C) 2017 by FIZ Karlsruhe - Leibniz Institute for Information Infrastructure.  All rights reserved.
data_1029-ICSD
_database_code_ICSD 1029
_audit_creation_date 1980-01-01
_audit_update_record 2007-04-01
_chemical_name_systematic 'Dirubidium tetraiodocobaltate(II)'
_chemical_formula_structural 'Rb2 (Co I4)'
_chemical_formula_sum 'Co1 I4 Rb2'
_chemical_name_structure_type K2ZnBr4
_exptl_crystal_density_diffrn 4.02
_publ_section_title

;
Ueber die Systeme Ai/Coi+2 und die kristallchemischen Beziehungen in der
Gruppe der Doppelhalogenide An Cox(n+2) mit x = Cl, Br, I
;
loop_
_citation_id
_citation_journal_full
_citation_year
_citation_journal_volume
_citation_page_first
_citation_page_last
_citation_journal_id_ASTM
primary 'Zeitschrift fuer Anorganische und Allgemeine Chemie (1950) (DE)' 1977
429 105 117 ZAACAB
loop_
_publ_author_name
'Seifert, H.J.'
'Staeudel, L.'
_cell_length_a 10.383
_cell_length_b 8.144
_cell_length_c 7.657
_cell_angle_alpha 90.
_cell_angle_beta 109.8
_cell_angle_gamma 90.
_cell_volume 609.19
_cell_formula_units_Z 2
_symmetry_space_group_name_H-M 'P 1 21/m 1'
_symmetry_Int_Tables_number 11
_refine_ls_R_factor_all 0.15
loop_
_symmetry_equiv_pos_site_id
_symmetry_equiv_pos_as_xyz
1 'x, -y+1/2, z'
2 '-x, -y, -z'
3 '-x, y+1/2, -z'
4 'x, y, z'
loop_
_atom_type_symbol
_atom_type_oxidation_number
Rb1+ 1
Co2+ 2
I1- -1
loop_
_atom_site_label
_atom_site_type_symbol
_atom_site_symmetry_multiplicity
_atom_site_Wyckoff_symbol
_atom_site_fract_x
_atom_site_fract_y
_atom_site_fract_z
_atom_site_B_iso_or_equiv
_atom_site_occupancy
_atom_site_attached_hydrogens
Rb1 Rb1+ 2 e 0.5865(4) 0.25 0.8019(5) 3.8 1. 0
Rb2 Rb1+ 2 e 0.0354(4) 0.25 0.6963(5) 3.6 1. 0
Co1 Co2+ 2 e 0.2144(4) 0.25 0.3044(6) 2.6 1. 0
I1 I1- 2 e -.0498(3) 0.25 0.1354(4) 4.2 1. 0
I2 I1- 2 e 0.3569(3) 0.25 0.0813(4) 4.1 1. 0
I3 I1- 4 f 0.2782(2) -.0040(3) 0.5203(2) 4.2 1. 0
#End of TTdata_1029-ICSD