
data_103093-ICSD
_database_code_ICSD 103093
_audit_creation_date 2004-10-01
_chemical_name_systematic 'Copper antimony (11/3)'
_chemical_formula_structural 'Cu11 Sb3'
_chemical_formula_sum 'Cu11 Sb3'
_exptl_crystal_density_diffrn 9.07
_cell_length_a 4.324(6)
_cell_length_b 19.08(2)
_cell_length_c 4.724(7)
_cell_angle_alpha 90.
_cell_angle_beta 90.
_cell_angle_gamma 90.
_cell_volume 389.74
_cell_formula_units_Z 2
_symmetry_space_group_name_H-M 'A m m 2'
_symmetry_Int_Tables_number 38
loop_
_symmetry_equiv_pos_site_id
_symmetry_equiv_pos_as_xyz
1 'x, -y, z'
2 '-x, y, z'
3 '-x, -y, z'
4 'x, y, z'
5 'x, -y+1/2, z+1/2'
6 '-x, y+1/2, z+1/2'
7 '-x, -y+1/2, z+1/2'
8 'x, y+1/2, z+1/2'
loop_
_atom_type_symbol
_atom_type_oxidation_number
Cu0+ 0
Sb0+ 0
loop_
_atom_site_label
_atom_site_type_symbol
_atom_site_symmetry_multiplicity
_atom_site_Wyckoff_symbol
_atom_site_fract_x
_atom_site_fract_y
_atom_site_fract_z
_atom_site_B_iso_or_equiv
_atom_site_occupancy
_atom_site_attached_hydrogens
Cu1 Cu0+ 2 a 0 0 0.167 . 1. 0
Cu2 Cu0+ 4 d 0 0.071 0.667 . 1. 0
Cu3 Cu0+ 4 d 0 0.214 0.667 . 1. 0
Cu4 Cu0+ 4 e 0.5 0.075 0.328 . 1. 0
Cu5 Cu0+ 4 e 0.5 0.218 0.338 . 1. 0
Cu6 Cu0+ 4 e 0.5 0.143 0.833 . 1. 0
Sb1 Sb0+ 2 b 0.5 0 0.833 . 1. 0
Sb2 Sb0+ 4 d 0 0.158 0.147 . 1. 0
