
#(C) 2017 by FIZ Karlsruhe - Leibniz Institute for Information Infrastructure.  All rights reserved.
data_1031-ICSD
_database_code_ICSD 1031
_audit_creation_date 1980-01-01
_audit_update_record 2012-08-01
_chemical_name_systematic 'Niobium nitride oxide'
_chemical_formula_structural 'Nb N O'
_chemical_formula_sum 'N1 Nb1 O1'
_chemical_name_structure_type Baddeleyite-ZrO2(mP12)
_exptl_crystal_density_diffrn 6.39
_publ_section_title

;
Darstellung der Oxidnitride V O N, Nb O N und Ta O N. Die Kristallstruktur von
Nb O N und Ta O N
;
loop_
_citation_id
_citation_journal_full
_citation_year
_citation_journal_volume
_citation_page_first
_citation_page_last
_citation_journal_id_ASTM
primary 'Zeitschrift fuer Anorganische und Allgemeine Chemie (1950) (DE)' 1977
429 261 269 ZAACAB
loop_
_publ_author_name
'Weishaupt, M.'
'Straehle, J.'
_cell_length_a 4.970(3)
_cell_length_b 5.033(3)
_cell_length_c 5.193(3)
_cell_angle_alpha 90.
_cell_angle_beta 100.23
_cell_angle_gamma 90.
_cell_volume 127.83
_cell_formula_units_Z 4
_symmetry_space_group_name_H-M 'P 1 21/c 1'
_symmetry_Int_Tables_number 14
_refine_ls_R_factor_all 0.031
loop_
_symmetry_equiv_pos_site_id
_symmetry_equiv_pos_as_xyz
1 'x, -y+1/2, z+1/2'
2 '-x, -y, -z'
3 '-x, y+1/2, -z+1/2'
4 'x, y, z'
loop_
_atom_type_symbol
_atom_type_oxidation_number
Nb5+ 5
O2- -2
N3- -3
loop_
_atom_site_label
_atom_site_type_symbol
_atom_site_symmetry_multiplicity
_atom_site_Wyckoff_symbol
_atom_site_fract_x
_atom_site_fract_y
_atom_site_fract_z
_atom_site_B_iso_or_equiv
_atom_site_occupancy
_atom_site_attached_hydrogens
Nb1 Nb5+ 4 e 0.2911(1) 0.0472(1) 0.2151(1) . 1. 0
O1 O2- 4 e 0.0636(8) 0.3244(8) 0.3476(9) 0.19 1. 0
N1 N3- 4 e 0.4402(8) 0.7546(11) 0.4782(9) 0.1 1. 0
loop_
_atom_site_aniso_label
_atom_site_aniso_type_symbol
_atom_site_aniso_beta_11
_atom_site_aniso_beta_22
_atom_site_aniso_beta_33
_atom_site_aniso_beta_12
_atom_site_aniso_beta_13
_atom_site_aniso_beta_23
Nb1 Nb5+ 0.0038(2) 0.0035(2) 0.0055(2) 0.0000(2) 0.0004(1) 0.0002(2)
#End of TTdata_1031-ICSD