
#(C) 2017 by FIZ Karlsruhe - Leibniz Institute for Information Infrastructure.  All rights reserved.
data_1032-ICSD
_database_code_ICSD 1032
_audit_creation_date 1980-01-01
_audit_update_record 2010-02-01
_chemical_name_systematic 'Tantalum nitride oxide'
_chemical_formula_structural 'Ta N O'
_chemical_formula_sum 'N1 O1 Ta1'
_chemical_name_structure_type Baddeleyite-ZrO2(mP12)
_exptl_crystal_density_diffrn 10.95
_publ_section_title

;
Darstellung der Oxidnitride V O N, Nb O N und Ta O N. Die Kristallstruktur von
Nb O N und Ta O N
;
loop_
_citation_id
_citation_journal_full
_citation_year
_citation_journal_volume
_citation_page_first
_citation_page_last
_citation_journal_id_ASTM
primary 'Zeitschrift fuer Anorganische und Allgemeine Chemie (1950) (DE)' 1977
429 261 269 ZAACAB
loop_
_publ_author_name
'Weishaupt, M.'
'Straehle, J.'
_cell_length_a 4.968(1)
_cell_length_b 5.037(1)
_cell_length_c 5.185(1)
_cell_angle_alpha 90.
_cell_angle_beta 99.56(1)
_cell_angle_gamma 90.
_cell_volume 127.95
_cell_formula_units_Z 4
_symmetry_space_group_name_H-M 'P 1 21/c 1'
_symmetry_Int_Tables_number 14
_refine_ls_R_factor_all 0.084
loop_
_symmetry_equiv_pos_site_id
_symmetry_equiv_pos_as_xyz
1 'x, -y+1/2, z+1/2'
2 '-x, -y, -z'
3 '-x, y+1/2, -z+1/2'
4 'x, y, z'
loop_
_atom_type_symbol
_atom_type_oxidation_number
Ta5+ 5
O2- -2
N3- -3
loop_
_atom_site_label
_atom_site_type_symbol
_atom_site_symmetry_multiplicity
_atom_site_Wyckoff_symbol
_atom_site_fract_x
_atom_site_fract_y
_atom_site_fract_z
_atom_site_B_iso_or_equiv
_atom_site_occupancy
_atom_site_attached_hydrogens
Ta1 Ta5+ 4 e 0.2921(1) 0.0440(2) 0.2150(1) 0.1 1. 0
O1 O2- 4 e 0.0650(31) 0.3331(47) 0.3439(29) 0.9 1. 0
N1 N3- 4 e 0.4425(34) 0.7529(28) 0.4819(35) 0.5 1. 0
#End of TTdata_1032-ICSD