
data_103649-ICSD
_database_code_ICSD 103649
_audit_creation_date 2004-10-01
_audit_update_record 2011-08-01
_chemical_name_systematic 'Gallium potassium (3/1)'
_chemical_formula_structural 'Ga3 K'
_chemical_formula_sum 'Ga3 K1'
_chemical_name_structure_type KGa3
_exptl_crystal_density_diffrn 4.24
_cell_length_a 6.278(1)
_cell_length_b 6.278
_cell_length_c 14.799(3)
_cell_angle_alpha 90.
_cell_angle_beta 90.
_cell_angle_gamma 90.
_cell_volume 583.28
_cell_formula_units_Z 6
_symmetry_space_group_name_H-M 'I -4 m 2'
_symmetry_Int_Tables_number 119
_refine_ls_R_factor_all 0.059
loop_
_symmetry_equiv_pos_site_id
_symmetry_equiv_pos_as_xyz
1 'y, x, -z'
2 '-y, -x, -z'
3 'y, -x, -z'
4 '-y, x, -z'
5 'x, -y, z'
6 '-x, y, z'
7 '-x, -y, z'
8 'x, y, z'
9 'y+1/2, x+1/2, -z+1/2'
10 '-y+1/2, -x+1/2, -z+1/2'
11 'y+1/2, -x+1/2, -z+1/2'
12 '-y+1/2, x+1/2, -z+1/2'
13 'x+1/2, -y+1/2, z+1/2'
14 '-x+1/2, y+1/2, z+1/2'
15 '-x+1/2, -y+1/2, z+1/2'
16 'x+1/2, y+1/2, z+1/2'
loop_
_atom_type_symbol
_atom_type_oxidation_number
Ga0+ 0
K0+ 0
loop_
_atom_site_label
_atom_site_type_symbol
_atom_site_symmetry_multiplicity
_atom_site_Wyckoff_symbol
_atom_site_fract_x
_atom_site_fract_y
_atom_site_fract_z
_atom_site_B_iso_or_equiv
_atom_site_occupancy
_atom_site_attached_hydrogens
Ga1 Ga0+ 2 b 0 0 0.5 0.36(18) 1. 0
Ga2 Ga0+ 8 i 0.2063(9) 0 0.2217(3) 0.64(10) 1. 0
Ga3 Ga0+ 8 i 0.3054(8) 0 0.3931(3) 0.63(11) 1. 0
K1 K0+ 2 a 0 0 0 1.31(44) 1. 0
K2 K0+ 4 f 0 0.5 0.3725(10) 1.38(32) 1. 0
loop_
_atom_site_aniso_label
_atom_site_aniso_type_symbol
_atom_site_aniso_beta_11
_atom_site_aniso_beta_22
_atom_site_aniso_beta_33
_atom_site_aniso_beta_12
_atom_site_aniso_beta_13
_atom_site_aniso_beta_23
Ga1 Ga0+ 0.0128(36) 0.0128 0.0005(3) 0 0 0
Ga2 Ga0+ 0.0082(14) 0.0123(17) 0.0009(2) 0 -.0003(3) 0
Ga3 Ga0+ 0.0069(14) 0.0114(15) 0.0009(2) 0 0.0005(4) 0
K1 K0+ 0.0208(86) 0.0208 0.0005(8) 0 0 0
K2 K0+ 0.0094(45) 0.0177(51) 0.0025(8) 0 0 0
