
#(C) 2017 by FIZ Karlsruhe - Leibniz Institute for Information Infrastructure.  All rights reserved.
data_103923-ICSD
_database_code_ICSD 103923
_audit_creation_date 2004-10-01
_chemical_name_systematic 'Gallium platinum (1/3)'
_chemical_formula_structural 'Ga Pt3'
_chemical_formula_sum 'Ga1 Pt3'
_chemical_name_structure_type AlPt3
_exptl_crystal_density_diffrn 18.42
_publ_section_title
'Kristallstruktur von Pt3 Ga(r) und einigen Phasen der Mischung Pt-Al'
loop_
_citation_id
_citation_journal_full
_citation_year
_citation_journal_volume
_citation_page_first
_citation_page_last
_citation_journal_id_ASTM
primary 'Journal of the Less-Common Metals' 1975 41 19 32 JCOMAH
loop_
_publ_author_name
'Chattopadhyay, T.K.'
'Schubert, K.'
_cell_length_a 5.4723(5)
_cell_length_b 5.4723
_cell_length_c 7.886(2)
_cell_angle_alpha 90.
_cell_angle_beta 90.
_cell_angle_gamma 90.
_cell_volume 236.15
_cell_formula_units_Z 4
_symmetry_space_group_name_H-M 'P 4/m b m'
_symmetry_Int_Tables_number 127
_refine_ls_R_factor_all 0.19
loop_
_symmetry_equiv_pos_site_id
_symmetry_equiv_pos_as_xyz
1 'y+1/2, x+1/2, -z'
2 '-y+1/2, -x+1/2, -z'
3 '-y, x, -z'
4 'y, -x, -z'
5 'x+1/2, -y+1/2, -z'
6 '-x+1/2, y+1/2, -z'
7 'x, y, -z'
8 '-x, -y, -z'
9 '-y+1/2, -x+1/2, z'
10 'y+1/2, x+1/2, z'
11 'y, -x, z'
12 '-y, x, z'
13 '-x+1/2, y+1/2, z'
14 'x+1/2, -y+1/2, z'
15 '-x, -y, z'
16 'x, y, z'
loop_
_atom_type_symbol
_atom_type_oxidation_number
Ga0+ 0
Pt0+ 0
loop_
_atom_site_label
_atom_site_type_symbol
_atom_site_symmetry_multiplicity
_atom_site_Wyckoff_symbol
_atom_site_fract_x
_atom_site_fract_y
_atom_site_fract_z
_atom_site_B_iso_or_equiv
_atom_site_occupancy
_atom_site_attached_hydrogens
Ga1 Ga0+ 4 f 0 0.5 0.258 . 1. 0
Pt1 Pt0+ 4 e 0 0 0.251 . 1. 0
Pt2 Pt0+ 4 g 0.231 0.731 0 . 1. 0
Pt3 Pt0+ 4 h 0.29 0.79 0.5 . 1. 0
#End of TTdata_103923-ICSD