
#(C) 2017 by FIZ Karlsruhe - Leibniz Institute for Information Infrastructure.  All rights reserved.
data_103904-ICSD
_database_code_ICSD 103904
_audit_creation_date 2004-10-01
_audit_update_record 2012-02-01
_chemical_name_systematic 'Gallium palladium (2/5)'
_chemical_formula_structural 'Ga2 Pd5'
_chemical_formula_sum 'Ga2 Pd5'
_exptl_crystal_density_diffrn 10.83
_publ_section_title 'Kristallstruktur von Pd5 Ga2'
loop_
_citation_id
_citation_journal_full
_citation_year
_citation_journal_volume
_citation_page_first
_citation_page_last
_citation_journal_id_ASTM
primary 'Journal of the Less-Common Metals' 1974 37 129 140 JCOMAH
loop_
_publ_author_name
'Khalaff, K.'
'Schubert, K.'
_cell_length_a 5.485(5)
_cell_length_b 4.083(4)
_cell_length_c 18.396(20)
_cell_angle_alpha 90.
_cell_angle_beta 90.
_cell_angle_gamma 90.
_cell_volume 411.98
_cell_formula_units_Z 4
_symmetry_space_group_name_H-M 'P n m a'
_symmetry_Int_Tables_number 62
_refine_ls_R_factor_all 0.15
loop_
_symmetry_equiv_pos_site_id
_symmetry_equiv_pos_as_xyz
1 'x+1/2, y, -z+1/2'
2 'x, -y+1/2, z'
3 '-x+1/2, y+1/2, z+1/2'
4 '-x, -y, -z'
5 '-x+1/2, -y, z+1/2'
6 '-x, y+1/2, -z'
7 'x+1/2, -y+1/2, -z+1/2'
8 'x, y, z'
loop_
_atom_type_symbol
_atom_type_oxidation_number
Ga0+ 0
Pd0+ 0
loop_
_atom_site_label
_atom_site_type_symbol
_atom_site_symmetry_multiplicity
_atom_site_Wyckoff_symbol
_atom_site_fract_x
_atom_site_fract_y
_atom_site_fract_z
_atom_site_B_iso_or_equiv
_atom_site_occupancy
_atom_site_attached_hydrogens
Ga1 Ga0+ 4 c 0.794 0.25 0.043 0.53 1. 0
Ga2 Ga0+ 4 c 0.331 0.25 0.177 0.08 1. 0
Pd1 Pd0+ 4 c 0.868 0.25 0.765 0.005 1. 0
Pd2 Pd0+ 4 c 0.33 0.25 0.031 0.27 1. 0
Pd3 Pd0+ 4 c 0.964 0.25 0.911 0.17 1. 0
Pd4 Pd0+ 4 c 0.833 0.25 0.179 0.1 1. 0
Pd5 Pd0+ 4 c 0.963 0.25 0.617 0.23 1. 0
#End of TTdata_103904-ICSD