
#(C) 2017 by FIZ Karlsruhe - Leibniz Institute for Information Infrastructure.  All rights reserved.
data_104317-ICSD
_database_code_ICSD 104317
_audit_creation_date 2004-10-01
_chemical_name_systematic 'Mercury magnesium (1/3)'
_chemical_formula_structural 'Hg Mg3'
_chemical_formula_sum 'Hg1 Mg3'
_exptl_crystal_density_diffrn 5.24
_publ_section_title 'Contribution to the system Mg-Au-Hg'
loop_
_citation_id
_citation_journal_full
_citation_year
_citation_journal_volume
_citation_page_first
_citation_page_last
_citation_journal_id_ASTM
primary 'Philips Journal of Research' 1984 39 275 292 PHJRD9
loop_
_publ_author_name
'Daams, J.L.C.'
'van Vucht, J.H.N.'
_cell_length_a 8.351(2)
_cell_length_b 8.351
_cell_length_c 25.845(2)
_cell_angle_alpha 90.
_cell_angle_beta 90.
_cell_angle_gamma 120.
_cell_volume 1560.93
_cell_formula_units_Z 18
_symmetry_space_group_name_H-M 'R 3 2 H'
_symmetry_Int_Tables_number 155
loop_
_symmetry_equiv_pos_site_id
_symmetry_equiv_pos_as_xyz
1 '-x, -x+y, -z'
2 'x-y, -y, -z'
3 'y, x, -z'
4 '-x+y, -x, z'
5 '-y, x-y, z'
6 'x, y, z'
7 '-x+2/3, -x+y+1/3, -z+1/3'
8 'x-y+2/3, -y+1/3, -z+1/3'
9 'y+2/3, x+1/3, -z+1/3'
10 '-x+y+2/3, -x+1/3, z+1/3'
11 '-y+2/3, x-y+1/3, z+1/3'
12 'x+2/3, y+1/3, z+1/3'
13 '-x+1/3, -x+y+2/3, -z+2/3'
14 'x-y+1/3, -y+2/3, -z+2/3'
15 'y+1/3, x+2/3, -z+2/3'
16 '-x+y+1/3, -x+2/3, z+2/3'
17 '-y+1/3, x-y+2/3, z+2/3'
18 'x+1/3, y+2/3, z+2/3'
loop_
_atom_type_symbol
_atom_type_oxidation_number
Hg0+ 0
Mg0+ 0
loop_
_atom_site_label
_atom_site_type_symbol
_atom_site_symmetry_multiplicity
_atom_site_Wyckoff_symbol
_atom_site_fract_x
_atom_site_fract_y
_atom_site_fract_z
_atom_site_B_iso_or_equiv
_atom_site_occupancy
_atom_site_attached_hydrogens
Hg1 Hg0+ 9 d 0.667 0 0 . 1. 0
Hg2 Hg0+ 9 e 0.333 0 0.5 . 1. 0
Mg1 Mg0+ 6 c 0 0 0.861 . 1. 0
Mg2 Mg0+ 6 c 0 0 0.417 . 1. 0
Mg3 Mg0+ 6 c 0 0 0.695 . 1. 0
Mg4 Mg0+ 18 f 0.667 0.667 0.055 . 1. 0
Mg5 Mg0+ 18 f 0.333 0.333 0.111 . 1. 0
#End of TTdata_104317-ICSD