
data_10456-ICSD
_database_code_ICSD 10456
_audit_creation_date 1980-12-31
_audit_update_record 2012-08-01
_chemical_name_systematic 'Barium mercury tetrathiostannate'
_chemical_formula_structural 'Ba Hg Sn S4'
_chemical_formula_sum 'Ba1 Hg1 S4 Sn1'
_exptl_crystal_density_diffrn 5.02
_cell_length_a 10.804
_cell_length_b 10.84
_cell_length_c 6.613
_cell_angle_alpha 90.
_cell_angle_beta 90.
_cell_angle_gamma 90.
_cell_volume 774.48
_cell_formula_units_Z 4
_symmetry_space_group_name_H-M 'P n n 2'
_symmetry_Int_Tables_number 34
_refine_ls_R_factor_all 0.06
loop_
_symmetry_equiv_pos_site_id
_symmetry_equiv_pos_as_xyz
1 'x+1/2, -y+1/2, z+1/2'
2 '-x+1/2, y+1/2, z+1/2'
3 '-x, -y, z'
4 'x, y, z'
loop_
_atom_type_symbol
_atom_type_oxidation_number
Ba2+ 2
Hg2+ 2
Sn4+ 4
S2- -2
loop_
_atom_site_label
_atom_site_type_symbol
_atom_site_symmetry_multiplicity
_atom_site_Wyckoff_symbol
_atom_site_fract_x
_atom_site_fract_y
_atom_site_fract_z
_atom_site_B_iso_or_equiv
_atom_site_occupancy
_atom_site_attached_hydrogens
Ba1 Ba2+ 2 a 0 0 0.0395 . 1. 0
Ba2 Ba2+ 2 b 0 0.5 0.0667 . 1. 0
Hg1 Hg2+ 4 c 0.1734 0.2532 0.5 . 1. 0
Sn1 Sn4+ 4 c 0.2873 0.2426 0.0365 . 1. 0
S1 S2- 4 c 0.097 0.243 0.841 . 1. 0
S2 S2- 4 c 0.267 0.417 0.27 . 1. 0
S3 S2- 4 c 0.264 0.076 0.261 . 1. 0
S4 S2- 4 c 0.448 0.25 0.798 . 1. 0
loop_
_atom_site_aniso_label
_atom_site_aniso_type_symbol
_atom_site_aniso_U_11
_atom_site_aniso_U_22
_atom_site_aniso_U_33
_atom_site_aniso_U_12
_atom_site_aniso_U_13
_atom_site_aniso_U_23
Hg1 Hg2+ 0.0341 0.0162 0.0058 0.0003 -.0032 -.007
