
#(C) 2017 by FIZ Karlsruhe - Leibniz Institute for Information Infrastructure.  All rights reserved.
data_104760-ICSD
_database_code_ICSD 104760
_audit_creation_date 2004-10-01
_chemical_name_systematic 'Lithium sodium tin (5/2/4)'
_chemical_formula_structural 'Li5 Na2 Sn4'
_chemical_formula_sum 'Li5 Na2 Sn4'
_exptl_crystal_density_diffrn 3.99
_publ_section_title 'Darstellung und Struktur der Phase Li5 Na2 Sn4'
loop_
_citation_id
_citation_journal_full
_citation_year
_citation_journal_volume
_citation_page_first
_citation_page_last
_citation_journal_id_ASTM
primary

;
Zeitschrift fuer Naturforschung, Teil B. Anorganische Chemie, Organische
Chemie (33,1978-41,1986)
; 1978 33 823 826 ZNBAD2
loop_
_publ_author_name
'Volk, K.'
'Mueller, W.'
_cell_length_a 4.723(1)
_cell_length_b 4.723
_cell_length_c 71.78(8)
_cell_angle_alpha 90.
_cell_angle_beta 90.
_cell_angle_gamma 120.
_cell_volume 1386.66
_cell_formula_units_Z 6
_symmetry_space_group_name_H-M 'R -3 m H'
_symmetry_Int_Tables_number 166
_refine_ls_R_factor_all 0.097
loop_
_symmetry_equiv_pos_site_id
_symmetry_equiv_pos_as_xyz
1 'x-y, -y, -z'
2 '-x, -x+y, -z'
3 'y, x, -z'
4 'x-y, x, -z'
5 'y, -x+y, -z'
6 '-x, -y, -z'
7 '-x+y, y, z'
8 'x, x-y, z'
9 '-y, -x, z'
10 '-x+y, -x, z'
11 '-y, x-y, z'
12 'x, y, z'
13 'x-y+2/3, -y+1/3, -z+1/3'
14 '-x+2/3, -x+y+1/3, -z+1/3'
15 'y+2/3, x+1/3, -z+1/3'
16 'x-y+2/3, x+1/3, -z+1/3'
17 'y+2/3, -x+y+1/3, -z+1/3'
18 '-x+2/3, -y+1/3, -z+1/3'
19 '-x+y+2/3, y+1/3, z+1/3'
20 'x+2/3, x-y+1/3, z+1/3'
21 '-y+2/3, -x+1/3, z+1/3'
22 '-x+y+2/3, -x+1/3, z+1/3'
23 '-y+2/3, x-y+1/3, z+1/3'
24 'x+2/3, y+1/3, z+1/3'
25 'x-y+1/3, -y+2/3, -z+2/3'
26 '-x+1/3, -x+y+2/3, -z+2/3'
27 'y+1/3, x+2/3, -z+2/3'
28 'x-y+1/3, x+2/3, -z+2/3'
29 'y+1/3, -x+y+2/3, -z+2/3'
30 '-x+1/3, -y+2/3, -z+2/3'
31 '-x+y+1/3, y+2/3, z+2/3'
32 'x+1/3, x-y+2/3, z+2/3'
33 '-y+1/3, -x+2/3, z+2/3'
34 '-x+y+1/3, -x+2/3, z+2/3'
35 '-y+1/3, x-y+2/3, z+2/3'
36 'x+1/3, y+2/3, z+2/3'
loop_
_atom_type_symbol
_atom_type_oxidation_number
Li0+ 0
Na0+ 0
Sn0+ 0
loop_
_atom_site_label
_atom_site_type_symbol
_atom_site_symmetry_multiplicity
_atom_site_Wyckoff_symbol
_atom_site_fract_x
_atom_site_fract_y
_atom_site_fract_z
_atom_site_B_iso_or_equiv
_atom_site_occupancy
_atom_site_attached_hydrogens
Li1 Li0+ 6 c 0 0 0.481(2) 0.05(1) 1. 0
Li2 Li0+ 6 c 0 0 0.276(2) 0.03(1) 1. 0
Li3 Li0+ 6 c 0 0 0.198(2) 0.05(1) 1. 0
Li4 Li0+ 6 c 0 0 0.446(2) 0.07(1) 1. 0
Li5 Li0+ 6 c 0 0 0.316(2) 0.03(1) 1. 0
Na1 Na0+ 6 c 0 0 0.2377(8) 0.058(3) 1. 0
Na2 Na0+ 6 c 0 0 0.050(4) 0.076(4) 1. 0
Sn1 Sn0+ 6 c 0 0 0.11955(3) 0.093(4) 1. 0
Sn2 Sn0+ 6 c 0 0 0.35912(3) 0.120(5) 1. 0
Sn3 Sn0+ 6 c 0 0 0.39942(3) 0.073(4) 1. 0
Sn4 Sn0+ 6 c 0 0 0.15919(5) 0.030(5) 1. 0
#End of TTdata_104760-ICSD