
#(C) 2017 by FIZ Karlsruhe - Leibniz Institute for Information Infrastructure.  All rights reserved.
data_10481-ICSD
_database_code_ICSD 10481
_audit_creation_date 1980-01-01
_audit_update_record 2007-08-01
_chemical_name_systematic 'Bismuth rhenate(V)'
_chemical_formula_structural 'Bi (Re O4)'
_chemical_formula_sum 'Bi1 O4 Re1'
_chemical_name_structure_type ReBiO4
_exptl_crystal_density_diffrn 9.63
_publ_section_title
'The preparation and crystal structures of Bi Re O4 and Bi Re2 O6'
loop_
_citation_id
_citation_journal_full
_citation_year
_citation_journal_volume
_citation_page_first
_citation_page_last
_citation_journal_id_ASTM
primary 'Journal of Solid State Chemistry' 1979 30 345 352 JSSCBI
loop_
_publ_author_name
'Smith, A.R.P.'
'Cheetham, A.K.'
_cell_length_a 3.839(1)
_cell_length_b 14.914(2)
_cell_length_c 5.534(1)
_cell_angle_alpha 90.
_cell_angle_beta 90.
_cell_angle_gamma 90.
_cell_volume 316.85
_cell_formula_units_Z 4
_symmetry_space_group_name_H-M 'C m c m'
_symmetry_Int_Tables_number 63
_refine_ls_R_factor_all 0.0255
loop_
_symmetry_equiv_pos_site_id
_symmetry_equiv_pos_as_xyz
1 '-x, y, -z+1/2'
2 '-x, -y, z+1/2'
3 '-x, y, z'
4 '-x, -y, -z'
5 'x, -y, z+1/2'
6 'x, y, -z+1/2'
7 'x, -y, -z'
8 'x, y, z'
9 '-x+1/2, y+1/2, -z+1/2'
10 '-x+1/2, -y+1/2, z+1/2'
11 '-x+1/2, y+1/2, z'
12 '-x+1/2, -y+1/2, -z'
13 'x+1/2, -y+1/2, z+1/2'
14 'x+1/2, y+1/2, -z+1/2'
15 'x+1/2, -y+1/2, -z'
16 'x+1/2, y+1/2, z'
loop_
_atom_type_symbol
_atom_type_oxidation_number
Re5+ 5
Bi3+ 3
O2- -2
loop_
_atom_site_label
_atom_site_type_symbol
_atom_site_symmetry_multiplicity
_atom_site_Wyckoff_symbol
_atom_site_fract_x
_atom_site_fract_y
_atom_site_fract_z
_atom_site_B_iso_or_equiv
_atom_site_occupancy
_atom_site_attached_hydrogens
Re1 Re5+ 4 c 0 0.0839(1) 0.25 . 1. 0
Bi1 Bi3+ 4 c 0 0.3120(1) 0.25 . 1. 0
O1 O2- 4 a 0 0 0 0.008(1) 1. 0
O2 O2- 4 c 0 0.591(1) 0.25 0.008(1) 1. 0
O3 O2- 8 f 0 0.188(1) 0.485(1) 0.007(1) 1. 0
loop_
_atom_site_aniso_label
_atom_site_aniso_type_symbol
_atom_site_aniso_U_11
_atom_site_aniso_U_22
_atom_site_aniso_U_33
_atom_site_aniso_U_12
_atom_site_aniso_U_13
_atom_site_aniso_U_23
Re1 Re5+ 0.0038(2) 0.0043(2) 0.0028(2) 0 0 0
Bi1 Bi3+ 0.0083(2) 0.0068(2) 0.0071(2) 0 0 0
#End of TTdata_10481-ICSD