
#(C) 2017 by FIZ Karlsruhe - Leibniz Institute for Information Infrastructure.  All rights reserved.
data_104872-ICSD
_database_code_ICSD 104872
_audit_creation_date 2004-10-01
_chemical_name_systematic 'Magnesium tin strontium (1/1/1)'
_chemical_formula_structural 'Mg Sn Sr'
_chemical_formula_sum 'Mg1 Sn1 Sr1'
_chemical_name_structure_type TiNiSi-MgSrSi
_exptl_crystal_density_diffrn 4.35
_publ_section_title

;
Der Uebergamg von "geordneten" Anti-Pb Cl2-Gitter zum Anti-Pb F Cl-Gitter:
Ternaere Phasen A B X der Erdalkalimetalle mit Elementen der 4. Hauptgruppe
(A= Ca, Sr, Ba; B= Mg; X= Si, Ge, Sn, Pb)
;
loop_
_citation_id
_citation_journal_full
_citation_year
_citation_journal_volume
_citation_page_first
_citation_page_last
_citation_journal_id_ASTM
primary 'Zeitschrift fuer Anorganische und Allgemeine Chemie (1950) (DE)' 1972
391 241 254 ZAACAB
loop_
_publ_author_name
'Eisenmann, B.'
'Schaefer, H.'
'Weiss, A.'
_cell_length_a 8.18(2)
_cell_length_b 4.92(2)
_cell_length_c 8.75(2)
_cell_angle_alpha 90.
_cell_angle_beta 90.
_cell_angle_gamma 90.
_cell_volume 352.15
_cell_formula_units_Z 4
_symmetry_space_group_name_H-M 'P n m a'
_symmetry_Int_Tables_number 62
_refine_ls_R_factor_all 0.117
loop_
_symmetry_equiv_pos_site_id
_symmetry_equiv_pos_as_xyz
1 'x+1/2, y, -z+1/2'
2 'x, -y+1/2, z'
3 '-x+1/2, y+1/2, z+1/2'
4 '-x, -y, -z'
5 '-x+1/2, -y, z+1/2'
6 '-x, y+1/2, -z'
7 'x+1/2, -y+1/2, -z+1/2'
8 'x, y, z'
loop_
_atom_type_symbol
_atom_type_oxidation_number
Mg0+ 0
Sn0+ 0
Sr0+ 0
loop_
_atom_site_label
_atom_site_type_symbol
_atom_site_symmetry_multiplicity
_atom_site_Wyckoff_symbol
_atom_site_fract_x
_atom_site_fract_y
_atom_site_fract_z
_atom_site_B_iso_or_equiv
_atom_site_occupancy
_atom_site_attached_hydrogens
Mg1 Mg0+ 4 c 0.644 0.25 0.066 . 1. 0
Sn1 Sn0+ 4 c 0.278 0.25 0.108 . 1. 0
Sr1 Sr0+ 4 c 0.511 0.25 0.688 . 1. 0
#End of TTdata_104872-ICSD