
#(C) 2017 by FIZ Karlsruhe - Leibniz Institute for Information Infrastructure.  All rights reserved.
data_105624-ICSD
_database_code_ICSD 105624
_audit_creation_date 2004-10-01
_chemical_name_systematic 'Lead strontium (1/2)'
_chemical_formula_structural 'Pb Sr2'
_chemical_formula_sum 'Pb1 Sr2'
_chemical_name_structure_type TiNiSi-MgSrSi
_exptl_crystal_density_diffrn 5.5
_publ_section_title

;
On the occurrence of M2 X intermetallic compounds (M= Ca, Sr, Ba; X= Si, Ge,
Sn, Pb)
;
loop_
_citation_id
_citation_journal_full
_citation_year
_citation_journal_volume
_citation_page_first
_citation_page_last
_citation_journal_id_ASTM
primary 'Journal of the Less-Common Metals' 1978 57 201 208 JCOMAH
loop_
_publ_author_name
'Bruzzone, G.'
'Franceschi, E.'
_cell_length_a 8.445
_cell_length_b 5.391
_cell_length_c 10.139
_cell_angle_alpha 90.
_cell_angle_beta 90.
_cell_angle_gamma 90.
_cell_volume 461.6
_cell_formula_units_Z 4
_symmetry_space_group_name_H-M 'P n m a'
_symmetry_Int_Tables_number 62
loop_
_symmetry_equiv_pos_site_id
_symmetry_equiv_pos_as_xyz
1 'x+1/2, y, -z+1/2'
2 'x, -y+1/2, z'
3 '-x+1/2, y+1/2, z+1/2'
4 '-x, -y, -z'
5 '-x+1/2, -y, z+1/2'
6 '-x, y+1/2, -z'
7 'x+1/2, -y+1/2, -z+1/2'
8 'x, y, z'
loop_
_atom_type_symbol
_atom_type_oxidation_number
Pb0+ 0
Sr0+ 0
loop_
_atom_site_label
_atom_site_type_symbol
_atom_site_symmetry_multiplicity
_atom_site_Wyckoff_symbol
_atom_site_fract_x
_atom_site_fract_y
_atom_site_fract_z
_atom_site_B_iso_or_equiv
_atom_site_occupancy
_atom_site_attached_hydrogens
Pb1 Pb0+ 4 c 0.248 0.25 0.102 . 1. 0
Sr1 Sr0+ 4 c 0.847 0.25 0.077 . 1. 0
Sr2 Sr0+ 4 c 0.982 0.25 0.676 . 1. 0
#End of TTdata_105624-ICSD