
#(C) 2017 by FIZ Karlsruhe - Leibniz Institute for Information Infrastructure.  All rights reserved.
data_105614-ICSD
_database_code_ICSD 105614
_audit_creation_date 2004-10-01
_chemical_name_systematic 'Lead scandium (3/5)'
_chemical_formula_structural 'Pb3 Sc5'
_chemical_formula_sum 'Pb3 Sc5'
_chemical_name_structure_type Mn5Si3
_exptl_crystal_density_diffrn 7.35
_publ_section_title
'Stannides and plumbides of Sc, Y, La and Ce with D8(8) structure'
loop_
_citation_id
_citation_journal_full
_citation_year
_citation_journal_volume
_citation_page_first
_citation_page_last
_citation_journal_id_ASTM
primary 'Acta Crystallographica (1,1948-23,1967)' 1965 19 275 277 ACCRA9
loop_
_publ_author_name
'Jeitschko, W.'
'Parthe, E.'
_cell_length_a 8.467(4)
_cell_length_b 8.467
_cell_length_c 6.158(3)
_cell_angle_alpha 90.
_cell_angle_beta 90.
_cell_angle_gamma 120.
_cell_volume 382.32
_cell_formula_units_Z 2
_symmetry_space_group_name_H-M 'P 63/m c m'
_symmetry_Int_Tables_number 193
loop_
_symmetry_equiv_pos_site_id
_symmetry_equiv_pos_as_xyz
1 '-x, -x+y, -z+1/2'
2 'x-y, -y, -z+1/2'
3 'y, x, -z+1/2'
4 '-x+y, -x, -z+1/2'
5 '-y, x-y, -z+1/2'
6 'x, y, -z+1/2'
7 'x, x-y, z+1/2'
8 '-x+y, y, z+1/2'
9 '-y, -x, z+1/2'
10 'x-y, x, z+1/2'
11 'y, -x+y, z+1/2'
12 '-x, -y, z+1/2'
13 'x, x-y, -z'
14 '-x+y, y, -z'
15 '-y, -x, -z'
16 'x-y, x, -z'
17 'y, -x+y, -z'
18 '-x, -y, -z'
19 '-x, -x+y, z'
20 'x-y, -y, z'
21 'y, x, z'
22 '-x+y, -x, z'
23 '-y, x-y, z'
24 'x, y, z'
loop_
_atom_type_symbol
_atom_type_oxidation_number
Pb0+ 0
Sc0+ 0
loop_
_atom_site_label
_atom_site_type_symbol
_atom_site_symmetry_multiplicity
_atom_site_Wyckoff_symbol
_atom_site_fract_x
_atom_site_fract_y
_atom_site_fract_z
_atom_site_B_iso_or_equiv
_atom_site_occupancy
_atom_site_attached_hydrogens
Pb1 Pb0+ 6 g 0.606 0 0.25 . 1. 0
Sc1 Sc0+ 4 d 0.3333 0.6667 0 . 1. 0
Sc2 Sc0+ 6 g 0.24 0 0.25 . 1. 0
#End of TTdata_105614-ICSD