
#(C) 2017 by FIZ Karlsruhe - Leibniz Institute for Information Infrastructure.  All rights reserved.
data_105859-ICSD
_database_code_ICSD 105859
_audit_creation_date 2004-10-01
_audit_update_record 2015-02-01
_chemical_name_systematic 'Platinum zirconium (11/9)'
_chemical_formula_structural 'Pt11 Zr9'
_chemical_formula_sum 'Pt11 Zr9'
_chemical_name_structure_type Pt11Zr9
_exptl_crystal_density_diffrn 13.49
_publ_section_title
'Alloying behaviour of zirconium with other transition metals'
loop_
_citation_id
_citation_journal_full
_citation_year
_citation_journal_volume
_citation_page_first
_citation_page_last
_citation_journal_id_ASTM
primary 'Zeitschrift fuer Metallkunde' 1973 64 793 799 ZEMTAE
loop_
_publ_author_name
'Panda, S.C.'
'Bhan, S.'
_cell_length_a 10.297
_cell_length_b 10.297
_cell_length_c 6.888
_cell_angle_alpha 90.
_cell_angle_beta 90.
_cell_angle_gamma 90.
_cell_volume 730.32
_cell_formula_units_Z 2
_symmetry_space_group_name_H-M 'I 4/m'
_symmetry_Int_Tables_number 87
loop_
_symmetry_equiv_pos_site_id
_symmetry_equiv_pos_as_xyz
1 '-y, x, -z'
2 'y, -x, -z'
3 'x, y, -z'
4 '-x, -y, -z'
5 'y, -x, z'
6 '-y, x, z'
7 '-x, -y, z'
8 'x, y, z'
9 '-y+1/2, x+1/2, -z+1/2'
10 'y+1/2, -x+1/2, -z+1/2'
11 'x+1/2, y+1/2, -z+1/2'
12 '-x+1/2, -y+1/2, -z+1/2'
13 'y+1/2, -x+1/2, z+1/2'
14 '-y+1/2, x+1/2, z+1/2'
15 '-x+1/2, -y+1/2, z+1/2'
16 'x+1/2, y+1/2, z+1/2'
loop_
_atom_type_symbol
_atom_type_oxidation_number
Pt0+ 0
Zr0+ 0
loop_
_atom_site_label
_atom_site_type_symbol
_atom_site_symmetry_multiplicity
_atom_site_Wyckoff_symbol
_atom_site_fract_x
_atom_site_fract_y
_atom_site_fract_z
_atom_site_B_iso_or_equiv
_atom_site_occupancy
_atom_site_attached_hydrogens
Pt1 Pt0+ 2 b 0 0 0.5 . 1. 0
Pt2 Pt0+ 4 d 0 0.5 0.25 . 1. 0
Pt3 Pt0+ 16 i 0.225 0.125 0.22 . 1. 0
Zr1 Zr0+ 2 a 0 0 0 . 1. 0
Zr2 Zr0+ 8 h 0.108 0.305 0 . 1. 0
Zr3 Zr0+ 8 h 0.405 0.21 0 . 1. 0
#End of TTdata_105859-ICSD