
data_105994-ICSD
_database_code_ICSD 105994
_audit_creation_date 2004-10-01
_audit_update_record 2012-02-01
_chemical_name_systematic 'Ruthenium tin (2/3)'
_chemical_formula_structural 'Ru2 Sn3'
_chemical_formula_sum 'Ru2 Sn3'
_chemical_name_structure_type Ru2Sn3
_exptl_crystal_density_diffrn 9.82
_cell_length_a 6.172
_cell_length_b 6.172
_cell_length_c 9.915
_cell_angle_alpha 90.
_cell_angle_beta 90.
_cell_angle_gamma 90.
_cell_volume 377.7
_cell_formula_units_Z 4
_symmetry_space_group_name_H-M 'P -4 c 2'
_symmetry_Int_Tables_number 116
_refine_ls_R_factor_all 0.08
loop_
_symmetry_equiv_pos_site_id
_symmetry_equiv_pos_as_xyz
1 'y, x, -z+1/2'
2 '-y, -x, -z+1/2'
3 'y, -x, -z'
4 '-y, x, -z'
5 'x, -y, z+1/2'
6 '-x, y, z+1/2'
7 '-x, -y, z'
8 'x, y, z'
loop_
_atom_type_symbol
_atom_type_oxidation_number
Ru0+ 0
Sn0+ 0
loop_
_atom_site_label
_atom_site_type_symbol
_atom_site_symmetry_multiplicity
_atom_site_Wyckoff_symbol
_atom_site_fract_x
_atom_site_fract_y
_atom_site_fract_z
_atom_site_B_iso_or_equiv
_atom_site_occupancy
_atom_site_attached_hydrogens
Ru1 Ru0+ 2 b 0.5 0.5 0.25 . 1. 0
Ru2 Ru0+ 2 c 0 0 0 . 1. 0
Ru3 Ru0+ 4 i 0 0.5 0.375 . 1. 0
Sn1 Sn0+ 4 f 0.177 0.177 0.75 . 1. 0
Sn2 Sn0+ 8 j 0.216 0.345 0.083 . 1. 0
