
#(C) 2017 by FIZ Karlsruhe - Leibniz Institute for Information Infrastructure.  All rights reserved.
data_105935-ICSD
_database_code_ICSD 105935
_audit_creation_date 2004-10-01
_audit_update_record 2011-02-01
_chemical_name_systematic 'Rhodium tin yttrium (3/5/2)'
_chemical_formula_structural 'Rh3 Sn5 Y2'
_chemical_formula_sum 'Rh3 Sn5 Y2'
_chemical_name_structure_type Rh3Y2Sn5
_exptl_crystal_density_diffrn 8.67
_publ_section_title

;
Des nouveaux stannures ternaires de rhodium et d'elements des terres rares:
TR2 Rh3 Sn6 ou TR= Y, Gd, Tb, Dy, Ho. Structures cristallines et magnetiques
des Y2 Rh3 Sn5
;
loop_
_citation_id
_citation_journal_full
_citation_year
_citation_journal_volume
_citation_page_first
_citation_page_last
_citation_journal_id_ASTM
primary 'Materials Research Bulletin' 1984 19 1181 1186 MRBUAC
loop_
_publ_author_name
'Meot Meyer, M.'
'Venturini, G.'
'Malaman, B.'
'Steinmetz, J.'
'Roques, B.'
_cell_length_a 4.387(2)
_cell_length_b 26.212(4)
_cell_length_c 7.1550(8)
_cell_angle_alpha 90.
_cell_angle_beta 90.
_cell_angle_gamma 90.
_cell_volume 822.77
_cell_formula_units_Z 4
_symmetry_space_group_name_H-M 'C m c 21'
_symmetry_Int_Tables_number 36
_refine_ls_R_factor_all 0.045
loop_
_symmetry_equiv_pos_site_id
_symmetry_equiv_pos_as_xyz
1 'x, -y, z+1/2'
2 '-x, -y, z+1/2'
3 '-x, y, z'
4 'x, y, z'
5 'x+1/2, -y+1/2, z+1/2'
6 '-x+1/2, -y+1/2, z+1/2'
7 '-x+1/2, y+1/2, z'
8 'x+1/2, y+1/2, z'
loop_
_atom_type_symbol
_atom_type_oxidation_number
Rh0+ 0
Sn0+ 0
Y0+ 0
loop_
_atom_site_label
_atom_site_type_symbol
_atom_site_symmetry_multiplicity
_atom_site_Wyckoff_symbol
_atom_site_fract_x
_atom_site_fract_y
_atom_site_fract_z
_atom_site_B_iso_or_equiv
_atom_site_occupancy
_atom_site_attached_hydrogens
Rh1 Rh0+ 4 a 0 0.0507 0.5194 . 1. 0
Rh2 Rh0+ 4 a 0 0.7767 0.7665 . 1. 0
Rh3 Rh0+ 4 a 0 0.3934 0.4812 . 1. 0
Sn1 Sn0+ 4 a 0 0.8793 0.7347 . 1. 0
Sn2 Sn0+ 4 a 0 0.7049 0.0502 . 1. 0
Sn3 Sn0+ 4 a 0 0.5965 0.608 . 1. 0
Sn4 Sn0+ 4 a 0 0.9527 0.4029 . 1. 0
Sn5 Sn0+ 4 a 0 0.29 0.9761 . 1. 0
Y1 Y0+ 4 a 0 0.172 0.7555 . 1. 0
Y2 Y0+ 4 a 0 0.477 0.7374 . 1. 0
#End of TTdata_105935-ICSD