
#(C) 2017 by FIZ Karlsruhe - Leibniz Institute for Information Infrastructure.  All rights reserved.
data_106089-ICSD
_database_code_ICSD 106089
_audit_creation_date 2004-10-01
_audit_update_record 2011-02-01
_chemical_name_systematic 'Tin titanium (5/6)'
_chemical_formula_structural 'Sn5 Ti6'
_chemical_formula_sum 'Sn5 Ti6'
_chemical_name_structure_type Sn5Ti6
_exptl_crystal_density_diffrn 6.59
_publ_section_title 'The system vanadium-gallium'
loop_
_citation_id
_citation_journal_full
_citation_year
_citation_journal_volume
_citation_page_first
_citation_page_last
_citation_journal_id_ASTM
primary 'Philips Research Reports' 1964 19 407 421 PRREA9
loop_
_publ_author_name
'van Vucht, J.H.N.'
'Bruning, H.A.C.M.'
'Donkersloot, H.C.'
'Gomes de Mesquita, A.H.'
_cell_length_a 16.930(3)
_cell_length_b 9.144(2)
_cell_length_c 5.735(1)
_cell_angle_alpha 90.
_cell_angle_beta 90.
_cell_angle_gamma 90.
_cell_volume 887.82
_cell_formula_units_Z 4
_symmetry_space_group_name_H-M 'I m m m'
_symmetry_Int_Tables_number 71
_refine_ls_R_factor_all 0.079
loop_
_symmetry_equiv_pos_site_id
_symmetry_equiv_pos_as_xyz
1 'x, y, -z'
2 'x, -y, z'
3 '-x, y, z'
4 '-x, -y, -z'
5 '-x, -y, z'
6 '-x, y, -z'
7 'x, -y, -z'
8 'x, y, z'
9 'x+1/2, y+1/2, -z+1/2'
10 'x+1/2, -y+1/2, z+1/2'
11 '-x+1/2, y+1/2, z+1/2'
12 '-x+1/2, -y+1/2, -z+1/2'
13 '-x+1/2, -y+1/2, z+1/2'
14 '-x+1/2, y+1/2, -z+1/2'
15 'x+1/2, -y+1/2, -z+1/2'
16 'x+1/2, y+1/2, z+1/2'
loop_
_atom_type_symbol
_atom_type_oxidation_number
Sn0+ 0
Ti0+ 0
loop_
_atom_site_label
_atom_site_type_symbol
_atom_site_symmetry_multiplicity
_atom_site_Wyckoff_symbol
_atom_site_fract_x
_atom_site_fract_y
_atom_site_fract_z
_atom_site_B_iso_or_equiv
_atom_site_occupancy
_atom_site_attached_hydrogens
Sn1 Sn0+ 4 e 0.322 0 0 . 1. 0
Sn2 Sn0+ 4 f 0.289 0.5 0 . 1. 0
Sn3 Sn0+ 4 i 0 0 0.249 . 1. 0
Sn4 Sn0+ 8 n 0.108 0.305 0 . 1. 0
Ti1 Ti0+ 4 e 0.156 0 0 . 1. 0
Ti2 Ti0+ 4 j 0.5 0 0.26 . 1. 0
Ti3 Ti0+ 8 k 0.25 0.25 0.25 . 1. 0
Ti4 Ti0+ 8 n 0.41 0.275 0 . 1. 0
#End of TTdata_106089-ICSD