
data_106287-ICSD
_database_code_ICSD 106287
_audit_creation_date 2005-04-01
_audit_update_record 2005-10-01
_chemical_name_systematic 'Gold magnesium (1/3)'
_chemical_formula_structural 'Au Mg3'
_chemical_formula_sum 'Au1 Mg3'
_chemical_name_structure_type LaF3(P63mc)
_exptl_crystal_density_diffrn 5.64
_cell_length_a 8.0594(3)
_cell_length_b 8.0594
_cell_length_c 8.4801(5)
_cell_angle_alpha 90.
_cell_angle_beta 90.
_cell_angle_gamma 120.
_cell_volume 477.02
_cell_formula_units_Z 6
_symmetry_space_group_name_H-M 'P 63 c m'
_symmetry_Int_Tables_number 185
_refine_ls_R_factor_all 0.041
loop_
_symmetry_equiv_pos_site_id
_symmetry_equiv_pos_as_xyz
1 'x, x-y, z+1/2'
2 '-x+y, y, z+1/2'
3 '-y, -x, z+1/2'
4 'x-y, x, z+1/2'
5 'y, -x+y, z+1/2'
6 '-x, -y, z+1/2'
7 '-x, -x+y, z'
8 'x-y, -y, z'
9 'y, x, z'
10 '-x+y, -x, z'
11 '-y, x-y, z'
12 'x, y, z'
loop_
_atom_type_symbol
_atom_type_oxidation_number
Au0+ 0
Mg0+ 0
loop_
_atom_site_label
_atom_site_type_symbol
_atom_site_symmetry_multiplicity
_atom_site_Wyckoff_symbol
_atom_site_fract_x
_atom_site_fract_y
_atom_site_fract_z
_atom_site_B_iso_or_equiv
_atom_site_occupancy
_atom_site_attached_hydrogens
Au1 Au0+ 6 c 0.6712(3) 0 0.75 0.004(1) 1. 0
Mg1 Mg0+ 2 a 0 0 0.3248(48) 0.012(7) 1. 0
Mg2 Mg0+ 4 b 0.3333 0.6667 0.2101(31) 0.019(5) 1. 0
Mg3 Mg0+ 6 c 0.7248(18) 0 0.0821(39) 0.003(4) 1. 0
Mg4 Mg0+ 6 c 0.6246(17) 0 0.4275(36) 0.010(4) 1. 0
