
#(C) 2017 by FIZ Karlsruhe - Leibniz Institute for Information Infrastructure.  All rights reserved.
data_106273-ICSD
_database_code_ICSD 106273
_audit_creation_date 2005-04-01
_chemical_name_systematic 'Gold calcium gallide (1/1/1)'
_chemical_formula_structural 'Au Ca Ga'
_chemical_formula_sum 'Au1 Ca1 Ga1'
_chemical_name_structure_type TiNiSi-MgSrSi
_exptl_crystal_density_diffrn 7.97
_publ_section_title

;
Darstellung und Kristallstrukturen von Ca Au Al, Ca Au Ga, Yb Au Al, Yb Pd Al
und Yb Pt Al (im Ti Ni Si-Typ) und Cd Pd Al, einer Variante des Pb F Cl-Typs
;
loop_
_citation_id
_citation_journal_full
_citation_year
_citation_journal_volume
_citation_page_first
_citation_page_last
_citation_journal_id_ASTM
primary 'Journal of Alloys and Compounds' 1993 201 197 201 JALCEU
loop_
_publ_author_name
'Cordier, G.'
'Friedrich, T.'
'Henseleit, R.'
'Grauel, A.'
'Tegel, U.'
'Schank, C.'
'Geibel, C.'
_cell_length_a 7.282(2)
_cell_length_b 4.542(1)
_cell_length_c 7.733(2)
_cell_angle_alpha 90.
_cell_angle_beta 90.
_cell_angle_gamma 90.
_cell_volume 255.77
_cell_formula_units_Z 4
_symmetry_space_group_name_H-M 'P n m a'
_symmetry_Int_Tables_number 62
_refine_ls_R_factor_all 0.033
loop_
_symmetry_equiv_pos_site_id
_symmetry_equiv_pos_as_xyz
1 'x+1/2, y, -z+1/2'
2 'x, -y+1/2, z'
3 '-x+1/2, y+1/2, z+1/2'
4 '-x, -y, -z'
5 '-x+1/2, -y, z+1/2'
6 '-x, y+1/2, -z'
7 'x+1/2, -y+1/2, -z+1/2'
8 'x, y, z'
loop_
_atom_type_symbol
_atom_type_oxidation_number
Au0+ 0
Ca0+ 0
Ga0+ 0
loop_
_atom_site_label
_atom_site_type_symbol
_atom_site_symmetry_multiplicity
_atom_site_Wyckoff_symbol
_atom_site_fract_x
_atom_site_fract_y
_atom_site_fract_z
_atom_site_B_iso_or_equiv
_atom_site_occupancy
_atom_site_attached_hydrogens
Au1 Au0+ 4 c 0.2947(1) 0.25 0.4063(1) . 1. 0
Ca1 Ca0+ 4 c 0.0062(8) 0.25 0.6994(7) . 1. 0
Ga1 Ga0+ 4 c 0.1807(5) 0.25 0.0792(4) . 1. 0
loop_
_atom_site_aniso_label
_atom_site_aniso_type_symbol
_atom_site_aniso_U_11
_atom_site_aniso_U_22
_atom_site_aniso_U_33
_atom_site_aniso_U_12
_atom_site_aniso_U_13
_atom_site_aniso_U_23
Au1 Au0+ .0033(5) .0040(5) .0042(5) 0 .0016(4) 0
Ca1 Ca0+ .0075(24) .0083(24) .0001(20) 0 .0022(19) 0
Ga1 Ga0+ .0081(4) .0001(12) .0031(13) 0 .0018(11) 0
#End of TTdata_106273-ICSD