
#(C) 2017 by FIZ Karlsruhe - Leibniz Institute for Information Infrastructure.  All rights reserved.
data_106340-ICSD
_database_code_ICSD 106340
_audit_creation_date 2005-04-01
_chemical_name_systematic 'Calcium gallium platinum (1/1/1)'
_chemical_formula_structural 'Ca Ga Pt'
_chemical_formula_sum 'Ca1 Ga1 Pt1'
_chemical_name_structure_type TiNiSi-MgSrSi
_exptl_crystal_density_diffrn 8.38
_publ_section_title

;
Darstellung und Kristallstrukturen der Verbindungen Ca Pt Ga, Ca Pt In und Ca
Pd.4 Ga1.6
;
loop_
_citation_id
_citation_journal_full
_citation_year
_citation_journal_volume
_citation_page_first
_citation_page_last
_citation_journal_id_ASTM
primary 'Zeitschrift fuer Anorganische und Allgemeine Chemie (1950) (DE)' 1994
620 1151 1156 ZAACAB
loop_
_publ_author_name
'Dascoulidou-Gritner, K.'
'Schuster, H.U.'
_cell_length_a 7.184(1)
_cell_length_b 4.429(1)
_cell_length_c 7.595(3)
_cell_angle_alpha 90.
_cell_angle_beta 90.
_cell_angle_gamma 90.
_cell_volume 241.66
_cell_formula_units_Z 4
_symmetry_space_group_name_H-M 'P n m a'
_symmetry_Int_Tables_number 62
_refine_ls_R_factor_all 0.068
loop_
_symmetry_equiv_pos_site_id
_symmetry_equiv_pos_as_xyz
1 'x+1/2, y, -z+1/2'
2 'x, -y+1/2, z'
3 '-x+1/2, y+1/2, z+1/2'
4 '-x, -y, -z'
5 '-x+1/2, -y, z+1/2'
6 '-x, y+1/2, -z'
7 'x+1/2, -y+1/2, -z+1/2'
8 'x, y, z'
loop_
_atom_type_symbol
_atom_type_oxidation_number
Ca0+ 0
Ga0+ 0
Pt0+ 0
loop_
_atom_site_label
_atom_site_type_symbol
_atom_site_symmetry_multiplicity
_atom_site_Wyckoff_symbol
_atom_site_fract_x
_atom_site_fract_y
_atom_site_fract_z
_atom_site_B_iso_or_equiv
_atom_site_occupancy
_atom_site_attached_hydrogens
Ca1 Ca0+ 4 c 0.0088(5) 0.25 0.6911(5) . 1. 0
Ga1 Ga0+ 4 c 0.1704(3) 0.25 0.0788(3) . 1. 0
Pt1 Pt0+ 4 c 0.2983(2) 0.25 0.4014(1) . 1. 0
loop_
_atom_site_aniso_label
_atom_site_aniso_type_symbol
_atom_site_aniso_U_11
_atom_site_aniso_U_22
_atom_site_aniso_U_33
_atom_site_aniso_U_12
_atom_site_aniso_U_13
_atom_site_aniso_U_23
Ca1 Ca0+ .007(1) .002(1) .006(1) 0 -.001(1) 0
Ga1 Ga0+ .0092(9) .0020(9) .0051(7) 0 .0029(7) 0
Pt1 Pt0+ .0145(4) .0084(4) .0112(3) 0 -.0019(3) 0
#End of TTdata_106340-ICSD