
#(C) 2017 by FIZ Karlsruhe - Leibniz Institute for Information Infrastructure.  All rights reserved.
data_106318-ICSD
_database_code_ICSD 106318
_audit_creation_date 2005-04-01
_audit_update_record 2013-02-01
_chemical_name_systematic 'Beryllium iron (2/1)'
_chemical_formula_structural 'Be2 Fe'
_chemical_formula_sum 'Be2 Fe1'
_chemical_name_structure_type Laves(2H)-MgZn2
_exptl_crystal_density_diffrn 4.63
_publ_section_title 'Weak reflections in the Laves phase Fe Be2'
loop_
_citation_id
_citation_journal_full
_citation_year
_citation_journal_volume
_citation_page_first
_citation_page_last
_citation_journal_id_ASTM
primary
'Zeitschrift fuer Naturforschung, Teil A. Physikalische Chemie, Kosmophysik' 1993 48 47 50 ZTAKDZ
loop_
_publ_author_name
'Costa, M.M.R.'
'de Almeida, M.J.M.'
'Paixao, J.A.'
_cell_length_a 4.2224(10)
_cell_length_b 4.2224
_cell_length_c 6.8700(11)
_cell_angle_alpha 90.
_cell_angle_beta 90.
_cell_angle_gamma 120.
_cell_volume 106.07
_cell_formula_units_Z 4
_symmetry_space_group_name_H-M 'P 63/m m c'
_symmetry_Int_Tables_number 194
_refine_ls_R_factor_all 0.026
loop_
_symmetry_equiv_pos_site_id
_symmetry_equiv_pos_as_xyz
1 'x, x-y, -z+1/2'
2 '-x+y, y, -z+1/2'
3 '-y, -x, -z+1/2'
4 '-x+y, -x, -z+1/2'
5 '-y, x-y, -z+1/2'
6 'x, y, -z+1/2'
7 '-x, -x+y, z+1/2'
8 'x-y, -y, z+1/2'
9 'y, x, z+1/2'
10 'x-y, x, z+1/2'
11 'y, -x+y, z+1/2'
12 '-x, -y, z+1/2'
13 '-x, -x+y, -z'
14 'x-y, -y, -z'
15 'y, x, -z'
16 'x-y, x, -z'
17 'y, -x+y, -z'
18 '-x, -y, -z'
19 'x, x-y, z'
20 '-x+y, y, z'
21 '-y, -x, z'
22 '-x+y, -x, z'
23 '-y, x-y, z'
24 'x, y, z'
loop_
_atom_type_symbol
_atom_type_oxidation_number
Be0+ 0
Fe0+ 0
loop_
_atom_site_label
_atom_site_type_symbol
_atom_site_symmetry_multiplicity
_atom_site_Wyckoff_symbol
_atom_site_fract_x
_atom_site_fract_y
_atom_site_fract_z
_atom_site_B_iso_or_equiv
_atom_site_occupancy
_atom_site_attached_hydrogens
Be1 Be0+ 2 a 0 0 0 . 1. 0
Be2 Be0+ 6 h 0.83031(26) 0.66062 0.25 . 1. 0
Fe3 Fe0+ 4 f 0.3333 0.6667 0.06161(4) . 1. 0
loop_
_atom_site_aniso_label
_atom_site_aniso_type_symbol
_atom_site_aniso_U_11
_atom_site_aniso_U_22
_atom_site_aniso_U_33
_atom_site_aniso_U_12
_atom_site_aniso_U_13
_atom_site_aniso_U_23
Be1 Be0+ .0110(15) .011 .0059(14) .0055 0 0
Be2 Be0+ .0081(8) .0076(4) .0052(6) .0038 0 0
Fe3 Fe0+ .00554(5) .00554 .00289(10) .00277 0 0
#End of TTdata_106318-ICSD