
#(C) 2017 by FIZ Karlsruhe - Leibniz Institute for Information Infrastructure.  All rights reserved.
data_106329-ICSD
_database_code_ICSD 106329
_audit_creation_date 2005-04-01
_audit_update_record 2011-02-01
_chemical_name_systematic 'Bismuth strontium (3/2)'
_chemical_formula_structural 'Bi3 Sr2'
_chemical_formula_sum 'Bi3 Sr2'
_chemical_name_structure_type Bi3Sr2
_exptl_crystal_density_diffrn 7.6
_publ_section_title

;
Crystal structure of some phases and alloying behaviour in alkaline earths,
europium and yttrium pnictides
;
loop_
_citation_id
_citation_journal_full
_citation_year
_citation_journal_volume
_citation_page_first
_citation_page_last
_citation_journal_id_ASTM
primary 'Chemistry of Materials' 1992 4 435 440 CMATEX
loop_
_publ_author_name
'Merlo, F.'
'Fornasini, M.L.'
_cell_length_a 15.631(5)
_cell_length_b 6.793(2)
_cell_length_c 6.599(2)
_cell_angle_alpha 90.
_cell_angle_beta 90.
_cell_angle_gamma 90.
_cell_volume 700.69
_cell_formula_units_Z 4
_symmetry_space_group_name_H-M 'P n n a'
_symmetry_Int_Tables_number 52
_refine_ls_R_factor_all 0.051
loop_
_symmetry_equiv_pos_site_id
_symmetry_equiv_pos_as_xyz
1 'x+1/2, -y+1/2, z+1/2'
2 '-x, y+1/2, z+1/2'
3 'x+1/2, y, -z'
4 '-x, -y, -z'
5 '-x+1/2, y+1/2, -z+1/2'
6 'x, -y+1/2, -z+1/2'
7 '-x+1/2, -y, z'
8 'x, y, z'
loop_
_atom_type_symbol
_atom_type_oxidation_number
Bi0+ 0
Sr0+ 0
loop_
_atom_site_label
_atom_site_type_symbol
_atom_site_symmetry_multiplicity
_atom_site_Wyckoff_symbol
_atom_site_fract_x
_atom_site_fract_y
_atom_site_fract_z
_atom_site_B_iso_or_equiv
_atom_site_occupancy
_atom_site_attached_hydrogens
Bi1 Bi0+ 4 d 0.4294(1) 0.25 0.25 0.0235(4) 1. 0
Bi2 Bi0+ 8 e 0.1539(1) 0.0640(1) 0.5788(2) 0.0249(3) 1. 0
Sr1 Sr0+ 4 c 0.25 0 0.0570(6) 0.023(1) 1. 0
Sr2 Sr0+ 4 d 0.0001(2) 0.25 0.25 0.024(1) 1. 0
#End of TTdata_106329-ICSD