
#(C) 2017 by FIZ Karlsruhe - Leibniz Institute for Information Infrastructure.  All rights reserved.
data_106313-ICSD
_database_code_ICSD 106313
_audit_creation_date 2005-04-01
_chemical_name_systematic 'Barium sodium (1/2)'
_chemical_formula_structural 'Ba Na2'
_chemical_formula_sum 'Ba1 Na2'
_chemical_name_structure_type Laves(2H)-MgZn2
_exptl_crystal_density_diffrn 2.14
_publ_section_title 'The new Laves phase Na2 Ba'
loop_
_citation_id
_citation_journal_full
_citation_year
_citation_journal_volume
_citation_page_first
_citation_page_last
_citation_journal_id_ASTM
primary 'Zeitschrift fuer Naturforschung, B: Chemical Sciences' 1994 49 189 192
ZNBSEN
loop_
_publ_author_name
'Snyder, G.J.'
'Simon, A.'
_cell_length_a 7.393(4)
_cell_length_b 7.393
_cell_length_c 11.999(9)
_cell_angle_alpha 90.
_cell_angle_beta 90.
_cell_angle_gamma 120.
_cell_volume 567.96
_cell_formula_units_Z 4
_symmetry_space_group_name_H-M 'P 63/m m c'
_symmetry_Int_Tables_number 194
_refine_ls_R_factor_all 0.034
loop_
_symmetry_equiv_pos_site_id
_symmetry_equiv_pos_as_xyz
1 'x, x-y, -z+1/2'
2 '-x+y, y, -z+1/2'
3 '-y, -x, -z+1/2'
4 '-x+y, -x, -z+1/2'
5 '-y, x-y, -z+1/2'
6 'x, y, -z+1/2'
7 '-x, -x+y, z+1/2'
8 'x-y, -y, z+1/2'
9 'y, x, z+1/2'
10 'x-y, x, z+1/2'
11 'y, -x+y, z+1/2'
12 '-x, -y, z+1/2'
13 '-x, -x+y, -z'
14 'x-y, -y, -z'
15 'y, x, -z'
16 'x-y, x, -z'
17 'y, -x+y, -z'
18 '-x, -y, -z'
19 'x, x-y, z'
20 '-x+y, y, z'
21 '-y, -x, z'
22 '-x+y, -x, z'
23 '-y, x-y, z'
24 'x, y, z'
loop_
_atom_type_symbol
_atom_type_oxidation_number
Ba0+ 0
Na0+ 0
loop_
_atom_site_label
_atom_site_type_symbol
_atom_site_symmetry_multiplicity
_atom_site_Wyckoff_symbol
_atom_site_fract_x
_atom_site_fract_y
_atom_site_fract_z
_atom_site_B_iso_or_equiv
_atom_site_occupancy
_atom_site_attached_hydrogens
Ba1 Ba0+ 4 f 0.3333 0.6667 0.0620(1) 0.0039(1) 1. 0
Na1 Na0+ 2 a 0 0 0 0.0051(3) 1. 0
Na2 Na0+ 6 h 0.8293(6) 0.6586 0.25 0.0051(2) 1. 0
loop_
_atom_site_aniso_label
_atom_site_aniso_type_symbol
_atom_site_aniso_U_11
_atom_site_aniso_U_22
_atom_site_aniso_U_33
_atom_site_aniso_U_12
_atom_site_aniso_U_13
_atom_site_aniso_U_23
Ba1 Ba0+ .0036(1) .0036 .0044(1) .0018 0 0
Na1 Na0+ .0051(4) .0051 .0062(6) .00255 0 0
Na2 Na0+ .0048(3) .0047(4) .0059(3) .00235 0 0
#End of TTdata_106313-ICSD