
#(C) 2017 by FIZ Karlsruhe - Leibniz Institute for Information Infrastructure.  All rights reserved.
data_106344-ICSD
_database_code_ICSD 106344
_audit_creation_date 2005-04-01
_chemical_name_systematic 'Calcium mercury (5/3)'
_chemical_formula_structural 'Ca5 Hg3'
_chemical_formula_sum 'Ca5 Hg3'
_chemical_name_structure_type Cr5B3
_exptl_crystal_density_diffrn 5.4
_publ_section_title 'Darstellung und Kristallstruktur von Ca5 Hg3 und Sr5 Cd3'
loop_
_citation_id
_citation_journal_full
_citation_year
_citation_journal_volume
_citation_page_first
_citation_page_last
_citation_journal_id_ASTM
primary 'Zeitschrift fuer Anorganische und Allgemeine Chemie (1950) (DE)' 1994
620 1845 1849 ZAACAB
loop_
_publ_author_name
'Druska, C.'
'Boettcher, P.'
_cell_length_a 8.189(1)
_cell_length_b 8.189
_cell_length_c 14.701(3)
_cell_angle_alpha 90.
_cell_angle_beta 90.
_cell_angle_gamma 90.
_cell_volume 985.84
_cell_formula_units_Z 4
_symmetry_space_group_name_H-M 'I 4/m c m'
_symmetry_Int_Tables_number 140
_refine_ls_R_factor_all 0.023
loop_
_symmetry_equiv_pos_site_id
_symmetry_equiv_pos_as_xyz
1 'y, x, -z+1/2'
2 '-y, -x, -z+1/2'
3 '-y, x, -z'
4 'y, -x, -z'
5 'x, -y, -z+1/2'
6 '-x, y, -z+1/2'
7 'x, y, -z'
8 '-x, -y, -z'
9 '-y, -x, z+1/2'
10 'y, x, z+1/2'
11 'y, -x, z'
12 '-y, x, z'
13 '-x, y, z+1/2'
14 'x, -y, z+1/2'
15 '-x, -y, z'
16 'x, y, z'
17 'y+1/2, x+1/2, -z'
18 '-y+1/2, -x+1/2, -z'
19 '-y+1/2, x+1/2, -z+1/2'
20 'y+1/2, -x+1/2, -z+1/2'
21 'x+1/2, -y+1/2, -z'
22 '-x+1/2, y+1/2, -z'
23 'x+1/2, y+1/2, -z+1/2'
24 '-x+1/2, -y+1/2, -z+1/2'
25 '-y+1/2, -x+1/2, z'
26 'y+1/2, x+1/2, z'
27 'y+1/2, -x+1/2, z+1/2'
28 '-y+1/2, x+1/2, z+1/2'
29 '-x+1/2, y+1/2, z'
30 'x+1/2, -y+1/2, z'
31 '-x+1/2, -y+1/2, z+1/2'
32 'x+1/2, y+1/2, z+1/2'
loop_
_atom_type_symbol
_atom_type_oxidation_number
Ca0+ 0
Hg0+ 0
loop_
_atom_site_label
_atom_site_type_symbol
_atom_site_symmetry_multiplicity
_atom_site_Wyckoff_symbol
_atom_site_fract_x
_atom_site_fract_y
_atom_site_fract_z
_atom_site_B_iso_or_equiv
_atom_site_occupancy
_atom_site_attached_hydrogens
Ca1 Ca0+ 4 c 0 0 0 0.023(1) 1. 0
Ca2 Ca0+ 16 l 0.1645(2) 0.6645 0.1467 0.019(1) 1. 0
Hg1 Hg0+ 4 a 0 0 0.25 0.026(1) 1. 0
Hg2 Hg0+ 8 h 0.3677(1) 0.8677 0 0.019(1) 1. 0
loop_
_atom_site_aniso_label
_atom_site_aniso_type_symbol
_atom_site_aniso_U_11
_atom_site_aniso_U_22
_atom_site_aniso_U_33
_atom_site_aniso_U_12
_atom_site_aniso_U_13
_atom_site_aniso_U_23
Ca1 Ca0+ .014(1) .014 .041(2) 0 0 0
Ca2 Ca0+ .020(1) .02 .018(1) -.002(1) .001(1) .001
Hg1 Hg0+ .022(1) .022 .035(1) 0 0 0
Hg2 Hg0+ .016(1) .016 .024(1) .000(1) 0 0
#End of TTdata_106344-ICSD