
#(C) 2017 by FIZ Karlsruhe - Leibniz Institute for Information Infrastructure.  All rights reserved.
data_106753-ICSD
_database_code_ICSD 106753
_audit_creation_date 2005-04-01
_chemical_name_systematic 'Gallium tin zirconium (1/3/5)'
_chemical_formula_structural 'Ga Sn3 Zr5'
_chemical_formula_sum 'Ga1 Sn3 Zr5'
_chemical_name_structure_type Ga4Ti5
_exptl_crystal_density_diffrn 7.67
_cell_measurement_temperature 298.
_publ_section_title

;
Chemistry in polar intermetallic compounds. The interstitial chemistry of Zr5
Sr3
;
loop_
_citation_id
_citation_journal_full
_citation_year
_citation_journal_volume
_citation_page_first
_citation_page_last
_citation_journal_id_ASTM
primary 'Chemistry of Materials' 1992 4 1348 1355 CMATEX
loop_
_publ_author_name
'Kwon Young-Uk'
'Corbett, J.D.'
_cell_length_a 8.6599(6)
_cell_length_b 8.6599
_cell_length_c 5.8794(8)
_cell_angle_alpha 90.
_cell_angle_beta 90.
_cell_angle_gamma 120.
_cell_volume 381.85
_cell_formula_units_Z 2
_symmetry_space_group_name_H-M 'P 63/m c m'
_symmetry_Int_Tables_number 193
_refine_ls_R_factor_all 0.044
loop_
_symmetry_equiv_pos_site_id
_symmetry_equiv_pos_as_xyz
1 '-x, -x+y, -z+1/2'
2 'x-y, -y, -z+1/2'
3 'y, x, -z+1/2'
4 '-x+y, -x, -z+1/2'
5 '-y, x-y, -z+1/2'
6 'x, y, -z+1/2'
7 'x, x-y, z+1/2'
8 '-x+y, y, z+1/2'
9 '-y, -x, z+1/2'
10 'x-y, x, z+1/2'
11 'y, -x+y, z+1/2'
12 '-x, -y, z+1/2'
13 'x, x-y, -z'
14 '-x+y, y, -z'
15 '-y, -x, -z'
16 'x-y, x, -z'
17 'y, -x+y, -z'
18 '-x, -y, -z'
19 '-x, -x+y, z'
20 'x-y, -y, z'
21 'y, x, z'
22 '-x+y, -x, z'
23 '-y, x-y, z'
24 'x, y, z'
loop_
_atom_type_symbol
_atom_type_oxidation_number
Ga0+ 0
Sn0+ 0
Zr0+ 0
loop_
_atom_site_label
_atom_site_type_symbol
_atom_site_symmetry_multiplicity
_atom_site_Wyckoff_symbol
_atom_site_fract_x
_atom_site_fract_y
_atom_site_fract_z
_atom_site_B_iso_or_equiv
_atom_site_occupancy
_atom_site_attached_hydrogens
Ga1 Ga0+ 2 b 0 0 0 . 1. 0
Sn1 Sn0+ 6 g 0.6117 0 0.25 . 1. 0
Zr1 Zr0+ 4 d 0.3333 0.6667 0 . 1. 0
Zr2 Zr0+ 6 g 0.2764 0 0.25 . 1. 0
#End of TTdata_106753-ICSD