
#(C) 2017 by FIZ Karlsruhe - Leibniz Institute for Information Infrastructure.  All rights reserved.
data_107428-ICSD
_database_code_ICSD 107428
_audit_creation_date 2005-10-01
_chemical_name_systematic 'Gold sodium thallium (1/4/1)'
_chemical_formula_structural 'Au Na4 Tl'
_chemical_formula_sum 'Au1 Na4 Tl1'
_exptl_crystal_density_diffrn 5.14
_publ_section_title
'Na4AuAl, die erste ternaere Verbindung im System Natrium/Gold/Thallium'
loop_
_citation_id
_citation_journal_full
_citation_year
_citation_journal_volume
_citation_page_first
_citation_page_last
_citation_journal_id_ASTM
primary 'Zeitschrift fuer Anorganische und Allgemeine Chemie (1950) (DE)' 1997
623 1621 1624 ZAACAB
loop_
_publ_author_name
'Zachwieja, U.'
'Mueller, J.'
_cell_length_a 5.453(1)
_cell_length_b 10.006(2)
_cell_length_c 23.387(5)
_cell_angle_alpha 90.
_cell_angle_beta 90.
_cell_angle_gamma 90.
_cell_volume 1276.06
_cell_formula_units_Z 8
_symmetry_space_group_name_H-M 'F m m m'
_symmetry_Int_Tables_number 69
_refine_ls_R_factor_all 0.0254
loop_
_symmetry_equiv_pos_site_id
_symmetry_equiv_pos_as_xyz
1 'x, y, -z'
2 'x, -y, z'
3 '-x, y, z'
4 '-x, -y, -z'
5 '-x, -y, z'
6 '-x, y, -z'
7 'x, -y, -z'
8 'x, y, z'
9 'x, y+1/2, -z+1/2'
10 'x, -y+1/2, z+1/2'
11 '-x, y+1/2, z+1/2'
12 '-x, -y+1/2, -z+1/2'
13 '-x, -y+1/2, z+1/2'
14 '-x, y+1/2, -z+1/2'
15 'x, -y+1/2, -z+1/2'
16 'x, y+1/2, z+1/2'
17 'x+1/2, y, -z+1/2'
18 'x+1/2, -y, z+1/2'
19 '-x+1/2, y, z+1/2'
20 '-x+1/2, -y, -z+1/2'
21 '-x+1/2, -y, z+1/2'
22 '-x+1/2, y, -z+1/2'
23 'x+1/2, -y, -z+1/2'
24 'x+1/2, y, z+1/2'
25 'x+1/2, y+1/2, -z'
26 'x+1/2, -y+1/2, z'
27 '-x+1/2, y+1/2, z'
28 '-x+1/2, -y+1/2, -z'
29 '-x+1/2, -y+1/2, z'
30 '-x+1/2, y+1/2, -z'
31 'x+1/2, -y+1/2, -z'
32 'x+1/2, y+1/2, z'
loop_
_atom_type_symbol
_atom_type_oxidation_number
Au0+ 0
Na0+ 0
Tl0+ 0
loop_
_atom_site_label
_atom_site_type_symbol
_atom_site_symmetry_multiplicity
_atom_site_Wyckoff_symbol
_atom_site_fract_x
_atom_site_fract_y
_atom_site_fract_z
_atom_site_B_iso_or_equiv
_atom_site_occupancy
_atom_site_attached_hydrogens
Au1 Au0+ 8 f 0.25 0.25 0.25 1.732(9) 1. 0
Na1 Na0+ 16 m 0 0.3323(5) 0.1365(2) 4.34(9) 1. 0
Na2 Na0+ 8 i 0 0 0.2057(2) 2.61(8) 1. 0
Na3 Na0+ 8 h 0 0.335(1) 0 9.2(3) 1. 0
Tl1 Tl0+ 8 i 0 0 0.06583(2) 3.11(12) 1. 0
#End of TTdata_107428-ICSD