
#(C) 2017 by FIZ Karlsruhe - Leibniz Institute for Information Infrastructure.  All rights reserved.
data_107576-ICSD
_database_code_ICSD 107576
_audit_creation_date 2005-10-01
_chemical_name_systematic 'Rhodium zinc (2/11)'
_chemical_formula_structural 'Rh2 Zn11'
_chemical_formula_sum 'Rh2 Zn11'
_chemical_name_structure_type Cu5Zn8
_exptl_crystal_density_diffrn 8.14
_publ_section_title
'Binary compounds of rhodium and zinc: Rh Zn, Rh2 Zn11, and Rh Zn13'
loop_
_citation_id
_citation_journal_full
_citation_year
_citation_journal_volume
_citation_page_first
_citation_page_last
_citation_journal_id_ASTM
primary 'Zeitschrift fuer Anorganische und Allgemeine Chemie (1950) (DE)' 2001
627 155 163 ZAACAB
loop_
_publ_author_name
'Gross, N.'
'Kotzyba, G.'
'Kuennen, B.'
'Jeitschko, W.'
_cell_length_a 9.091(1)
_cell_length_b 9.091
_cell_length_c 9.091
_cell_angle_alpha 90.
_cell_angle_beta 90.
_cell_angle_gamma 90.
_cell_volume 751.34
_cell_formula_units_Z 4
_symmetry_space_group_name_H-M 'I -4 3 m'
_symmetry_Int_Tables_number 217
_refine_ls_R_factor_all 0.048
loop_
_symmetry_equiv_pos_site_id
_symmetry_equiv_pos_as_xyz
1 '-z, -y, x'
2 '-y, -x, z'
3 '-x, -z, y'
4 '-z, -x, y'
5 '-y, -z, x'
6 '-x, -y, z'
7 '-z, y, -x'
8 '-y, x, -z'
9 '-x, z, -y'
10 '-z, x, -y'
11 '-y, z, -x'
12 '-x, y, -z'
13 'z, -y, -x'
14 'y, -x, -z'
15 'x, -z, -y'
16 'z, -x, -y'
17 'y, -z, -x'
18 'x, -y, -z'
19 'z, y, x'
20 'y, x, z'
21 'x, z, y'
22 'z, x, y'
23 'y, z, x'
24 'x, y, z'
25 '-z+1/2, -y+1/2, x+1/2'
26 '-y+1/2, -x+1/2, z+1/2'
27 '-x+1/2, -z+1/2, y+1/2'
28 '-z+1/2, -x+1/2, y+1/2'
29 '-y+1/2, -z+1/2, x+1/2'
30 '-x+1/2, -y+1/2, z+1/2'
31 '-z+1/2, y+1/2, -x+1/2'
32 '-y+1/2, x+1/2, -z+1/2'
33 '-x+1/2, z+1/2, -y+1/2'
34 '-z+1/2, x+1/2, -y+1/2'
35 '-y+1/2, z+1/2, -x+1/2'
36 '-x+1/2, y+1/2, -z+1/2'
37 'z+1/2, -y+1/2, -x+1/2'
38 'y+1/2, -x+1/2, -z+1/2'
39 'x+1/2, -z+1/2, -y+1/2'
40 'z+1/2, -x+1/2, -y+1/2'
41 'y+1/2, -z+1/2, -x+1/2'
42 'x+1/2, -y+1/2, -z+1/2'
43 'z+1/2, y+1/2, x+1/2'
44 'y+1/2, x+1/2, z+1/2'
45 'x+1/2, z+1/2, y+1/2'
46 'z+1/2, x+1/2, y+1/2'
47 'y+1/2, z+1/2, x+1/2'
48 'x+1/2, y+1/2, z+1/2'
loop_
_atom_type_symbol
_atom_type_oxidation_number
Rh0+ 0
Zn0+ 0
loop_
_atom_site_label
_atom_site_type_symbol
_atom_site_symmetry_multiplicity
_atom_site_Wyckoff_symbol
_atom_site_fract_x
_atom_site_fract_y
_atom_site_fract_z
_atom_site_B_iso_or_equiv
_atom_site_occupancy
_atom_site_attached_hydrogens
Rh1 Rh0+ 8 c 0.3268(3) 0.3268 0.3268 0.0215(12) 1. 0
Zn1 Zn0+ 24 g 0.3119(3) 0.3119 0.0368(3) 0.0156(7) 1. 0
Zn2 Zn0+ 12 e 0.3564(6) 0 0 0.0156(7) 1. 0
Zn3 Zn0+ 8 c 0.1099(4) 0.1099 0.1099 0.0156(7) 1. 0
#End of TTdata_107576-ICSD