
#(C) 2017 by FIZ Karlsruhe - Leibniz Institute for Information Infrastructure.  All rights reserved.
data_107575-ICSD
_database_code_ICSD 107575
_audit_creation_date 2005-10-01
_chemical_name_systematic 'Rhodium zinc (1/13)'
_chemical_formula_structural 'Rh Zn13'
_chemical_formula_sum 'Rh1 Zn13'
_chemical_name_structure_type CoZn13
_exptl_crystal_density_diffrn 7.63
_publ_section_title
'Binary compounds of rhodium and zinc: Rh Zn, Rh2 Zn11, and Rh Zn13'
loop_
_citation_id
_citation_journal_full
_citation_year
_citation_journal_volume
_citation_page_first
_citation_page_last
_citation_journal_id_ASTM
primary 'Zeitschrift fuer Anorganische und Allgemeine Chemie (1950) (DE)' 2001
627 155 163 ZAACAB
loop_
_publ_author_name
'Gross, N.'
'Kotzyba, G.'
'Kuennen, B.'
'Jeitschko, W.'
_cell_length_a 10.908(4)
_cell_length_b 7.537(2)
_cell_length_c 5.127(1)
_cell_angle_alpha 90.
_cell_angle_beta 101.02(3)
_cell_angle_gamma 90.
_cell_volume 413.74
_cell_formula_units_Z 2
_symmetry_space_group_name_H-M 'C 1 2/m 1'
_symmetry_Int_Tables_number 12
_refine_ls_R_factor_all 0.038
loop_
_symmetry_equiv_pos_site_id
_symmetry_equiv_pos_as_xyz
1 '-x, y, -z'
2 '-x, -y, -z'
3 'x, -y, z'
4 'x, y, z'
5 '-x+1/2, y+1/2, -z'
6 '-x+1/2, -y+1/2, -z'
7 'x+1/2, -y+1/2, z'
8 'x+1/2, y+1/2, z'
loop_
_atom_type_symbol
_atom_type_oxidation_number
Rh0+ 0
Zn0+ 0
loop_
_atom_site_label
_atom_site_type_symbol
_atom_site_symmetry_multiplicity
_atom_site_Wyckoff_symbol
_atom_site_fract_x
_atom_site_fract_y
_atom_site_fract_z
_atom_site_B_iso_or_equiv
_atom_site_occupancy
_atom_site_attached_hydrogens
Rh1 Rh0+ 2 c 0 0 0.5 0.0041(1) 1. 0
Zn1 Zn0+ 8 j 0.07905(4) 0.30257(7) 0.3236(1) 0.0178(1) 1. 0
Zn2 Zn0+ 8 j 0.32145(4) 0.32036(6) 0.1977(1) 0.0116(1) 1. 0
Zn3 Zn0+ 4 i 0.22174(5) 0 0.3645(1) 0.0142(2) 1. 0
Zn4 Zn0+ 4 i 0.38741(5) 0 0.0701(1) 0.0092(1) 1. 0
Zn5 Zn0+ 2 a 0 0 0 0.0193(3) 1. 0
#End of TTdata_107575-ICSD