
#(C) 2017 by FIZ Karlsruhe - Leibniz Institute for Information Infrastructure.  All rights reserved.
data_107544-ICSD
_database_code_ICSD 107544
_audit_creation_date 2005-10-01
_audit_update_record 2006-10-01
_chemical_name_systematic 'Aluminum copper (2/1) - omega'
_chemical_formula_structural 'Al2 Cu'
_chemical_formula_sum 'Al2 Cu1'
_exptl_crystal_density_diffrn 4.32
_publ_section_title
'The structure of (111) age-hardening precipitates in Al-Cu-Mg-Ag alloys'
loop_
_citation_id
_citation_journal_full
_citation_year
_citation_journal_volume
_citation_page_first
_citation_page_last
_citation_journal_id_ASTM
primary

;
Zeitschrift fuer Naturforschung, Teil B. Anorganische Chemie, Organische
Chemie (33,1978-41,1986)
; 1985 40 868 871 ZNBAD2
loop_
_publ_author_name
'Cordier, G.'
'Schaefer, H.'
'Stelter, M.'
_cell_length_a 4.96
_cell_length_b 8.59
_cell_length_c 8.48
_cell_angle_alpha 90.
_cell_angle_beta 90.
_cell_angle_gamma 90.
_cell_volume 361.3
_cell_formula_units_Z 8
_symmetry_space_group_name_H-M 'F m m m'
_symmetry_Int_Tables_number 69
loop_
_symmetry_equiv_pos_site_id
_symmetry_equiv_pos_as_xyz
1 'x, y, -z'
2 'x, -y, z'
3 '-x, y, z'
4 '-x, -y, -z'
5 '-x, -y, z'
6 '-x, y, -z'
7 'x, -y, -z'
8 'x, y, z'
9 'x, y+1/2, -z+1/2'
10 'x, -y+1/2, z+1/2'
11 '-x, y+1/2, z+1/2'
12 '-x, -y+1/2, -z+1/2'
13 '-x, -y+1/2, z+1/2'
14 '-x, y+1/2, -z+1/2'
15 'x, -y+1/2, -z+1/2'
16 'x, y+1/2, z+1/2'
17 'x+1/2, y, -z+1/2'
18 'x+1/2, -y, z+1/2'
19 '-x+1/2, y, z+1/2'
20 '-x+1/2, -y, -z+1/2'
21 '-x+1/2, -y, z+1/2'
22 '-x+1/2, y, -z+1/2'
23 'x+1/2, -y, -z+1/2'
24 'x+1/2, y, z+1/2'
25 'x+1/2, y+1/2, -z'
26 'x+1/2, -y+1/2, z'
27 '-x+1/2, y+1/2, z'
28 '-x+1/2, -y+1/2, -z'
29 '-x+1/2, -y+1/2, z'
30 '-x+1/2, y+1/2, -z'
31 'x+1/2, -y+1/2, -z'
32 'x+1/2, y+1/2, z'
loop_
_atom_type_symbol
_atom_type_oxidation_number
Al0+ 0
Cu0+ 0
loop_
_atom_site_label
_atom_site_type_symbol
_atom_site_symmetry_multiplicity
_atom_site_Wyckoff_symbol
_atom_site_fract_x
_atom_site_fract_y
_atom_site_fract_z
_atom_site_B_iso_or_equiv
_atom_site_occupancy
_atom_site_attached_hydrogens
Al1 Al0+ 8 h 0 0.3333 0 . 1. 0
Al2 Al0+ 8 i 0 0 0.1667 . 1. 0
Cu1 Cu0+ 8 f 0.25 0.25 0.25 . 1. 0
#End of TTdata_107544-ICSD