
#(C) 2017 by FIZ Karlsruhe - Leibniz Institute for Information Infrastructure.  All rights reserved.
data_107616-ICSD
_database_code_ICSD 107616
_audit_creation_date 2005-10-01
_chemical_name_systematic 'Potassium bismuth tin (2/1/1)'
_chemical_formula_structural 'K2 Bi Sn'
_chemical_formula_sum 'Bi1 K2 Sn1'
_exptl_crystal_density_diffrn 4.55
_publ_section_title
'Crystal structure of dipotassium bismutidostannate, K2 Sn Bi'
loop_
_citation_id
_citation_journal_full
_citation_year
_citation_journal_volume
_citation_page_first
_citation_page_last
_citation_journal_id_ASTM
primary 'Zeitschrift fuer Kristallographie (1979-2010)' 1992 198 283 284 ZEKRDZ
loop_
_publ_author_name
'Asbrand, M.'
'Eisenmann, B.'
'Schuster, H.U.'
_cell_length_a 6.804(3)
_cell_length_b 13.39(4)
_cell_length_c 6.499(3)
_cell_angle_alpha 90.
_cell_angle_beta 90.
_cell_angle_gamma 90.
_cell_volume 592.1
_cell_formula_units_Z 4
_symmetry_space_group_name_H-M 'P b c m'
_symmetry_Int_Tables_number 57
_refine_ls_R_factor_all 0.064
loop_
_symmetry_equiv_pos_site_id
_symmetry_equiv_pos_as_xyz
1 'x, -y+1/2, z+1/2'
2 '-x, y+1/2, z'
3 'x, y, -z+1/2'
4 '-x, -y, -z'
5 '-x, y+1/2, -z+1/2'
6 'x, -y+1/2, -z'
7 '-x, -y, z+1/2'
8 'x, y, z'
loop_
_atom_type_symbol
_atom_type_oxidation_number
Bi0+ 0
Sn0+ 0
K0+ 0
loop_
_atom_site_label
_atom_site_type_symbol
_atom_site_symmetry_multiplicity
_atom_site_Wyckoff_symbol
_atom_site_fract_x
_atom_site_fract_y
_atom_site_fract_z
_atom_site_B_iso_or_equiv
_atom_site_occupancy
_atom_site_attached_hydrogens
Bi1 Bi0+ 4 d 0.3399(1) 0.1055(1) 0.25 . 1. 0
Sn1 Sn0+ 4 c 0.0930(2) 0.25 0 . 1. 0
K1 K0+ 4 d 0.841(1) 0.4885(5) 0.75 . 1. 0
K2 K0+ 4 d 0.389(1) 0.8336(5) 0.25 . 1. 0
#End of TTdata_107616-ICSD