
#(C) 2017 by FIZ Karlsruhe - Leibniz Institute for Information Infrastructure.  All rights reserved.
data_108194-ICSD
_database_code_ICSD 108194
_audit_creation_date 2006-10-01
_audit_update_record 2009-02-01
_chemical_name_systematic 'Tungsten carbide (2/1) - HT'
_chemical_formula_structural 'W2 C'
_chemical_formula_sum 'C1 W2'
_chemical_name_structure_type Fe2N-zeta
_exptl_crystal_density_diffrn 17.1
_publ_section_title 'Orthorhombic modifications of the compounds W2 C nd Mo2 C'
loop_
_citation_id
_citation_journal_full
_citation_year
_citation_journal_volume
_citation_page_first
_citation_page_last
_citation_journal_id_ASTM
primary Kristallografiya 1967 12 936 938 KRISAJ
loop_
_publ_author_name
'Telegus, V.S.'
'Gladyshevskii, E.I.'
'Kripyakevich, P.I.'
_cell_length_a 4.721
_cell_length_b 6.03
_cell_length_c 5.18
_cell_angle_alpha 90.
_cell_angle_beta 90.
_cell_angle_gamma 90.
_cell_volume 147.46
_cell_formula_units_Z 4
_symmetry_space_group_name_H-M 'P b c n'
_symmetry_Int_Tables_number 60
loop_
_symmetry_equiv_pos_site_id
_symmetry_equiv_pos_as_xyz
1 'x, -y, z+1/2'
2 '-x+1/2, y+1/2, z'
3 'x+1/2, y+1/2, -z+1/2'
4 '-x, -y, -z'
5 '-x, y, -z+1/2'
6 'x+1/2, -y+1/2, -z'
7 '-x+1/2, -y+1/2, z+1/2'
8 'x, y, z'
loop_
_atom_type_symbol
_atom_type_oxidation_number
W0+ 0
C0+ 0
loop_
_atom_site_label
_atom_site_type_symbol
_atom_site_symmetry_multiplicity
_atom_site_Wyckoff_symbol
_atom_site_fract_x
_atom_site_fract_y
_atom_site_fract_z
_atom_site_B_iso_or_equiv
_atom_site_occupancy
_atom_site_attached_hydrogens
W1 W0+ 8 d 0.25 0.125 0.071 . 1. 0
C1 C0+ 4 c 0 0.375 0.25 . 1. 0
#End of TTdata_108194-ICSD