
#(C) 2017 by FIZ Karlsruhe - Leibniz Institute for Information Infrastructure.  All rights reserved.
data_108796-ICSD
_database_code_ICSD 108796
_audit_creation_date 2007-04-01
_chemical_name_systematic 'Calcium gallium (3/8)'
_chemical_formula_structural 'Ca3 Ga8'
_chemical_formula_sum 'Ca3 Ga8'
_chemical_name_structure_type Ni4U3Si4
_exptl_crystal_density_diffrn 4.66
_publ_section_title

;
Re-examination of the Ca-Ga system and crystal structure of Ca Ga4. A
monoclinic distortion of Ba Al4-type
;
loop_
_citation_id
_citation_journal_full
_citation_year
_citation_journal_volume
_citation_page_first
_citation_page_last
_citation_journal_id_ASTM
primary 'Journal of the Less-Common Metals' 1989 154 67 77 JCOMAH
loop_
_publ_author_name
'Bruzzone, G.'
'Fornasini, M.L.'
'Merlo, F.'
_cell_length_a 4.323
_cell_length_b 4.323
_cell_length_c 25.843
_cell_angle_alpha 90.
_cell_angle_beta 90.
_cell_angle_gamma 90.
_cell_volume 482.96
_cell_formula_units_Z 2
_symmetry_space_group_name_H-M 'I m m m'
_symmetry_Int_Tables_number 71
loop_
_symmetry_equiv_pos_site_id
_symmetry_equiv_pos_as_xyz
1 'x, y, -z'
2 'x, -y, z'
3 '-x, y, z'
4 '-x, -y, -z'
5 '-x, -y, z'
6 '-x, y, -z'
7 'x, -y, -z'
8 'x, y, z'
9 'x+1/2, y+1/2, -z+1/2'
10 'x+1/2, -y+1/2, z+1/2'
11 '-x+1/2, y+1/2, z+1/2'
12 '-x+1/2, -y+1/2, -z+1/2'
13 '-x+1/2, -y+1/2, z+1/2'
14 '-x+1/2, y+1/2, -z+1/2'
15 'x+1/2, -y+1/2, -z+1/2'
16 'x+1/2, y+1/2, z+1/2'
loop_
_atom_type_symbol
_atom_type_oxidation_number
Ca0+ 0
Ga0+ 0
loop_
_atom_site_label
_atom_site_type_symbol
_atom_site_symmetry_multiplicity
_atom_site_Wyckoff_symbol
_atom_site_fract_x
_atom_site_fract_y
_atom_site_fract_z
_atom_site_B_iso_or_equiv
_atom_site_occupancy
_atom_site_attached_hydrogens
Ca1 Ca0+ 2 a 0 0 0 . 1. 0
Ca2 Ca0+ 4 j 0.5 0 0.352 . 1. 0
Ga1 Ga0+ 4 i 0 0 0.249 . 1. 0
Ga2 Ga0+ 4 i 0 0 0.453 . 1. 0
Ga3 Ga0+ 4 j 0.5 0 0.095 . 1. 0
Ga4 Ga0+ 4 j 0.5 0 0.19 . 1. 0
#End of TTdata_108796-ICSD