
#(C) 2017 by FIZ Karlsruhe - Leibniz Institute for Information Infrastructure.  All rights reserved.
data_109213-ICSD
_database_code_ICSD 109213
_audit_creation_date 2007-04-01
_audit_update_record 2013-02-01
_chemical_name_systematic 'Hafnium chromium (1/2) - HT'
_chemical_formula_structural 'Hf Cr2'
_chemical_formula_sum 'Cr2 Hf1'
_chemical_name_structure_type Laves(2H)-MgZn2
_exptl_crystal_density_diffrn 10.18
_publ_section_title 'Laves type phases of hafnium'
loop_
_citation_id
_citation_journal_full
_citation_year
_citation_journal_volume
_citation_page_first
_citation_page_last
_citation_journal_id_ASTM
primary 'Transactions of the American Society for Metals' 1961 53 321 329 TASEA7
loop_
_publ_author_name
'Elliott, R.P.'
_cell_length_a 5.077
_cell_length_b 5.077
_cell_length_c 8.254
_cell_angle_alpha 90.
_cell_angle_beta 90.
_cell_angle_gamma 120.
_cell_volume 184.25
_cell_formula_units_Z 4
_symmetry_space_group_name_H-M 'P 63/m m c'
_symmetry_Int_Tables_number 194
loop_
_symmetry_equiv_pos_site_id
_symmetry_equiv_pos_as_xyz
1 'x, x-y, -z+1/2'
2 '-x+y, y, -z+1/2'
3 '-y, -x, -z+1/2'
4 '-x+y, -x, -z+1/2'
5 '-y, x-y, -z+1/2'
6 'x, y, -z+1/2'
7 '-x, -x+y, z+1/2'
8 'x-y, -y, z+1/2'
9 'y, x, z+1/2'
10 'x-y, x, z+1/2'
11 'y, -x+y, z+1/2'
12 '-x, -y, z+1/2'
13 '-x, -x+y, -z'
14 'x-y, -y, -z'
15 'y, x, -z'
16 'x-y, x, -z'
17 'y, -x+y, -z'
18 '-x, -y, -z'
19 'x, x-y, z'
20 '-x+y, y, z'
21 '-y, -x, z'
22 '-x+y, -x, z'
23 '-y, x-y, z'
24 'x, y, z'
loop_
_atom_type_symbol
_atom_type_oxidation_number
Hf0+ 0
Cr0+ 0
loop_
_atom_site_label
_atom_site_type_symbol
_atom_site_symmetry_multiplicity
_atom_site_Wyckoff_symbol
_atom_site_fract_x
_atom_site_fract_y
_atom_site_fract_z
_atom_site_B_iso_or_equiv
_atom_site_occupancy
_atom_site_attached_hydrogens
Hf1 Hf0+ 4 f 0.3333 0.6667 0.063 . 1. 0
Cr1 Cr0+ 2 a 0 0 0 . 1. 0
Cr2 Cr0+ 6 h 0.833 0.666 0.25 . 1. 0
#End of TTdata_109213-ICSD