
#(C) 2017 by FIZ Karlsruhe - Leibniz Institute for Information Infrastructure.  All rights reserved.
data_1096-ICSD
_database_code_ICSD 1096
_audit_creation_date 1980-01-01
_audit_update_record 2012-02-01
_chemical_name_systematic 'Palladium phosphide (15/2)'
_chemical_formula_structural 'Pd15 P2'
_chemical_formula_sum 'P2 Pd15'
_exptl_crystal_density_diffrn 11.05
_publ_section_title 'The crystal structure of Pd15 P2'
loop_
_citation_id
_citation_journal_full
_citation_year
_citation_journal_volume
_citation_page_first
_citation_page_last
_citation_journal_id_ASTM
primary 'Acta Chemica Scandinavica, Series A: (28,1974-)' 1977 31 354 358 ACAPCT
loop_
_publ_author_name
'Andersson, Y.'
_cell_length_a 7.1067(2)
_cell_length_b 7.1067(2)
_cell_length_c 17.0867(6)
_cell_angle_alpha 90.
_cell_angle_beta 90.
_cell_angle_gamma 120.
_cell_volume 747.35
_cell_formula_units_Z 3
_symmetry_space_group_name_H-M 'R -3 H'
_symmetry_Int_Tables_number 148
_refine_ls_R_factor_all 0.066
loop_
_symmetry_equiv_pos_site_id
_symmetry_equiv_pos_as_xyz
1 'x-y, x, -z'
2 'y, -x+y, -z'
3 '-x, -y, -z'
4 '-x+y, -x, z'
5 '-y, x-y, z'
6 'x, y, z'
7 'x-y+2/3, x+1/3, -z+1/3'
8 'y+2/3, -x+y+1/3, -z+1/3'
9 '-x+2/3, -y+1/3, -z+1/3'
10 '-x+y+2/3, -x+1/3, z+1/3'
11 '-y+2/3, x-y+1/3, z+1/3'
12 'x+2/3, y+1/3, z+1/3'
13 'x-y+1/3, x+2/3, -z+2/3'
14 'y+1/3, -x+y+2/3, -z+2/3'
15 '-x+1/3, -y+2/3, -z+2/3'
16 '-x+y+1/3, -x+2/3, z+2/3'
17 '-y+1/3, x-y+2/3, z+2/3'
18 'x+1/3, y+2/3, z+2/3'
loop_
_atom_type_symbol
_atom_type_oxidation_number
Pd0+ 0
P0+ 0
loop_
_atom_site_label
_atom_site_type_symbol
_atom_site_symmetry_multiplicity
_atom_site_Wyckoff_symbol
_atom_site_fract_x
_atom_site_fract_y
_atom_site_fract_z
_atom_site_B_iso_or_equiv
_atom_site_occupancy
_atom_site_attached_hydrogens
Pd1 Pd0+ 18 f 0.40049(7) 0.28437(7) 0.96339(2) . 1. 0
Pd2 Pd0+ 18 f 0.25807(7) 0.23813(7) 0.79537(2) . 1. 0
Pd3 Pd0+ 6 c 0 0 0.07941(4) . 1. 0
Pd4 Pd0+ 3 b 0 0 0.5 . 1. 0
P1 P0+ 6 c 0 0 0.28552(16) 0.96 1. 0
loop_
_atom_site_aniso_label
_atom_site_aniso_type_symbol
_atom_site_aniso_beta_11
_atom_site_aniso_beta_22
_atom_site_aniso_beta_33
_atom_site_aniso_beta_12
_atom_site_aniso_beta_13
_atom_site_aniso_beta_23
Pd1 Pd0+ 0.00556(8) 0.00487(8) 0.00061(1) 0.00232(6) -.00006(2) -.00014(2)
Pd2 Pd0+ 0.00488(8) 0.00589(8) 0.00059(1) 0.00274(6) 0.00013(2) -.00007(2)
Pd3 Pd0+ 0.00542(8) 0.00542(8) 0.00056(2) 0.00271(4) 0 0
Pd4 Pd0+ 0.0044(1) 0.0044(1) 0.00056(2) 0.00220(5) 0 0
#End of TTdata_1096-ICSD