
data_1133-ICSD
_database_code_ICSD 1133
_audit_creation_date 1980-01-01
_audit_update_record 2015-08-01
_chemical_name_systematic 'Molybdenum nickel phosphide (1/1/1)'
_chemical_formula_structural 'Mo Ni P'
_chemical_formula_sum 'Mo1 Ni1 P1'
_chemical_name_structure_type ZrNiAl-Fe2P
_chemical_name_mineral Monipite
_exptl_crystal_density_diffrn 8.39
_cell_length_a 5.861(3)
_cell_length_b 5.861(3)
_cell_length_c 3.704(2)
_cell_angle_alpha 90.
_cell_angle_beta 90.
_cell_angle_gamma 120.
_cell_volume 110.19
_cell_formula_units_Z 3
_symmetry_space_group_name_H-M 'P -6 2 m'
_symmetry_Int_Tables_number 189
_refine_ls_R_factor_all 0.043
loop_
_symmetry_equiv_pos_site_id
_symmetry_equiv_pos_as_xyz
1 '-x, -x+y, -z'
2 'x-y, -y, -z'
3 'y, x, -z'
4 '-x, -x+y, z'
5 'x-y, -y, z'
6 'y, x, z'
7 '-x+y, -x, -z'
8 '-y, x-y, -z'
9 'x, y, -z'
10 '-x+y, -x, z'
11 '-y, x-y, z'
12 'x, y, z'
loop_
_atom_type_symbol
_atom_type_oxidation_number
Ni0+ 0
Mo0+ 0
P0+ 0
loop_
_atom_site_label
_atom_site_type_symbol
_atom_site_symmetry_multiplicity
_atom_site_Wyckoff_symbol
_atom_site_fract_x
_atom_site_fract_y
_atom_site_fract_z
_atom_site_B_iso_or_equiv
_atom_site_occupancy
_atom_site_attached_hydrogens
Ni1 Ni0+ 3 f 0.25034(22) 0 0 . 1. 0
Mo1 Mo0+ 3 g 0.58647(14) 0 0.5 . 1. 0
P1 P0+ 2 c 0.3333 0.6667 0 . 1. 0
P2 P0+ 1 b 0 0 0.5 . 1. 0
loop_
_atom_site_aniso_label
_atom_site_aniso_type_symbol
_atom_site_aniso_beta_11
_atom_site_aniso_beta_22
_atom_site_aniso_beta_33
_atom_site_aniso_beta_12
_atom_site_aniso_beta_13
_atom_site_aniso_beta_23
Ni1 Ni0+ 0.0024(13) 0.0029(3) 0.0047(5) 0.0014(3) 0 0
Mo1 Mo0+ 0.0019(8) 0.0022(2) 0.0015(3) 0.0011(2) 0 0
P1 P0+ 0.0022(4) 0.0022(4) 0.0047(10) 0.0011(4) 0 0
P2 P0+ 0.0031(6) 0.0031(6) 0.0033(16) 0.0015(6) 0 0
