
#(C) 2017 by FIZ Karlsruhe - Leibniz Institute for Information Infrastructure.  All rights reserved.
data_12159-ICSD
_database_code_ICSD 12159
_audit_creation_date 1980-01-01
_audit_update_record 2013-02-01
_chemical_name_systematic 'Cadmium sodium antimonide (1/1/1)'
_chemical_formula_structural 'Na Cd Sb'
_chemical_formula_sum 'Cd1 Na1 Sb1'
_chemical_name_structure_type TiNiSi-MgSrSi
_exptl_crystal_density_diffrn 5.42
_publ_section_title

;
Ternaere Pnictide und Chalkogenide von Alkalimetallen und IB-bzw.
IIB-Elementen
;
loop_
_citation_id
_citation_journal_full
_citation_year
_citation_journal_volume
_citation_page_first
_citation_page_last
_citation_journal_id_ASTM
primary

;
Zeitschrift fuer Naturforschung, Teil B. Anorganische Chemie, Organische
Chemie (33,1978-41,1986)
; 1978 33 370 373 ZNBAD2
loop_
_publ_author_name
'Savelsberg, G.'
'Schaefer, H.'
_cell_length_a 7.95(2)
_cell_length_b 4.71(2)
_cell_length_c 8.42(2)
_cell_angle_alpha 90.
_cell_angle_beta 90.
_cell_angle_gamma 90.
_cell_volume 315.28
_cell_formula_units_Z 4
_symmetry_space_group_name_H-M 'P n m a'
_symmetry_Int_Tables_number 62
_refine_ls_R_factor_all 0.062
loop_
_symmetry_equiv_pos_site_id
_symmetry_equiv_pos_as_xyz
1 'x+1/2, y, -z+1/2'
2 'x, -y+1/2, z'
3 '-x+1/2, y+1/2, z+1/2'
4 '-x, -y, -z'
5 '-x+1/2, -y, z+1/2'
6 '-x, y+1/2, -z'
7 'x+1/2, -y+1/2, -z+1/2'
8 'x, y, z'
loop_
_atom_type_symbol
_atom_type_oxidation_number
Na1+ 1
Cd2+ 2
Sb3- -3
loop_
_atom_site_label
_atom_site_type_symbol
_atom_site_symmetry_multiplicity
_atom_site_Wyckoff_symbol
_atom_site_fract_x
_atom_site_fract_y
_atom_site_fract_z
_atom_site_B_iso_or_equiv
_atom_site_occupancy
_atom_site_attached_hydrogens
Na1 Na1+ 4 c 0.511(3) 0.25 0.674(2) 0.024(4) 1. 0
Cd1 Cd2+ 4 c 0.6502(4) 0.25 0.0752(4) 0.016(1) 1. 0
Sb1 Sb3- 4 c 0.2772(4) 0.25 0.1058(3) 0.0134(6) 1. 0
#End of TTdata_12159-ICSD