
data_12162-ICSD
_database_code_ICSD 12162
_audit_creation_date 1980-01-01
_audit_update_record 1985-04-23
_chemical_name_systematic 'Gold iodide phosphorus (7/1/10)'
_chemical_formula_structural 'Au7 P10 I'
_chemical_formula_sum 'Au7 I1 P10'
_exptl_crystal_density_diffrn 8.22
_cell_length_a 6.173(7)
_cell_length_b 6.173(7)
_cell_length_c 11.107(7)
_cell_angle_alpha 90.
_cell_angle_beta 90.
_cell_angle_gamma 120.
_cell_volume 366.54
_cell_formula_units_Z 1
_symmetry_space_group_name_H-M 'P -6 2 m'
_symmetry_Int_Tables_number 189
_refine_ls_R_factor_all 0.06
loop_
_symmetry_equiv_pos_site_id
_symmetry_equiv_pos_as_xyz
1 '-x, -x+y, -z'
2 'x-y, -y, -z'
3 'y, x, -z'
4 '-x, -x+y, z'
5 'x-y, -y, z'
6 'y, x, z'
7 '-x+y, -x, -z'
8 '-y, x-y, -z'
9 'x, y, -z'
10 '-x+y, -x, z'
11 '-y, x-y, z'
12 'x, y, z'
loop_
_atom_type_symbol
_atom_type_oxidation_number
Au0+ 0
P0+ 0
I0+ 0
loop_
_atom_site_label
_atom_site_type_symbol
_atom_site_symmetry_multiplicity
_atom_site_Wyckoff_symbol
_atom_site_fract_x
_atom_site_fract_y
_atom_site_fract_z
_atom_site_B_iso_or_equiv
_atom_site_occupancy
_atom_site_attached_hydrogens
Au1 Au0+ 3 f 0.494(1) 0 0 . 1. 0
Au2 Au0+ 2 d 0.3333 0.6667 0.5 . 1. 0
Au3 Au0+ 2 e 0 0 0.2239(4) . 1. 0
P1 P0+ 4 h 0.3333 0.6667 0.294(2) . 1. 0
P2 P0+ 6 i 0.373(3) 0 0.198(2) . 1. 0
I1 I0+ 1 b 0 0 0.5 . 1. 0
loop_
_atom_site_aniso_label
_atom_site_aniso_type_symbol
_atom_site_aniso_B_11
_atom_site_aniso_B_22
_atom_site_aniso_B_33
_atom_site_aniso_B_12
_atom_site_aniso_B_13
_atom_site_aniso_B_23
Au1 Au0+ 2.28(11) 2.28(11) 1.69(13) 1.14 0 0
Au2 Au0+ 3.73(16) 3.73(16) 1.66(16) 1.86 0 0
Au3 Au0+ 2.02(14) 2.02(14) 2.68(18) 1.01 0 0
P1 P0+ 1.71(46) 1.71(46) 2.09(66) 0.86 0 0
P2 P0+ 1.90(63) 1.22(76) 2.18(65) 0.61 -.05(60) 0
I1 I0+ 3.47(35) 3.47(35) 1.85(34) 1.73 0 0
