
#(C) 2017 by FIZ Karlsruhe - Leibniz Institute for Information Infrastructure.  All rights reserved.
data_1244-ICSD
_database_code_ICSD 1244
_audit_creation_date 1980-01-01
_audit_update_record 2010-02-01
_chemical_name_systematic 'Bismuth indium (3/5)'
_chemical_formula_structural 'Bi3 In5'
_chemical_formula_sum 'Bi3 In5'
_chemical_name_structure_type In5Bi3
_exptl_crystal_density_diffrn 8.8
_cell_measurement_temperature 195.
_publ_section_title

;
Roentgenographische Untersuchungen der intermetallischen Phasen  In5  Bi3 ,
In2 Bi und In Bi zwischen +60 und -135 Grad C
;
loop_
_citation_id
_citation_journal_full
_citation_year
_citation_journal_volume
_citation_page_first
_citation_page_last
_citation_journal_id_ASTM
primary 'Zeitschrift fuer Anorganische und Allgemeine Chemie (1950) (DE)' 1977
431 261 267 ZAACAB
loop_
_publ_author_name
'Kubiak, R.'
_cell_length_a 8.484
_cell_length_b 8.484
_cell_length_c 12.59
_cell_angle_alpha 90.
_cell_angle_beta 90.
_cell_angle_gamma 90.
_cell_volume 906.21
_cell_formula_units_Z 4
_symmetry_space_group_name_H-M 'I 4/m c m'
_symmetry_Int_Tables_number 140
_refine_ls_R_factor_all 0.069
loop_
_symmetry_equiv_pos_site_id
_symmetry_equiv_pos_as_xyz
1 'y, x, -z+1/2'
2 '-y, -x, -z+1/2'
3 '-y, x, -z'
4 'y, -x, -z'
5 'x, -y, -z+1/2'
6 '-x, y, -z+1/2'
7 'x, y, -z'
8 '-x, -y, -z'
9 '-y, -x, z+1/2'
10 'y, x, z+1/2'
11 'y, -x, z'
12 '-y, x, z'
13 '-x, y, z+1/2'
14 'x, -y, z+1/2'
15 '-x, -y, z'
16 'x, y, z'
17 'y+1/2, x+1/2, -z'
18 '-y+1/2, -x+1/2, -z'
19 '-y+1/2, x+1/2, -z+1/2'
20 'y+1/2, -x+1/2, -z+1/2'
21 'x+1/2, -y+1/2, -z'
22 '-x+1/2, y+1/2, -z'
23 'x+1/2, y+1/2, -z+1/2'
24 '-x+1/2, -y+1/2, -z+1/2'
25 '-y+1/2, -x+1/2, z'
26 'y+1/2, x+1/2, z'
27 'y+1/2, -x+1/2, z+1/2'
28 '-y+1/2, x+1/2, z+1/2'
29 '-x+1/2, y+1/2, z'
30 'x+1/2, -y+1/2, z'
31 '-x+1/2, -y+1/2, z+1/2'
32 'x+1/2, y+1/2, z+1/2'
loop_
_atom_type_symbol
_atom_type_oxidation_number
In0+ 0
Bi0+ 0
loop_
_atom_site_label
_atom_site_type_symbol
_atom_site_symmetry_multiplicity
_atom_site_Wyckoff_symbol
_atom_site_fract_x
_atom_site_fract_y
_atom_site_fract_z
_atom_site_B_iso_or_equiv
_atom_site_occupancy
_atom_site_attached_hydrogens
In1 In0+ 4 c 0 0 0 . 1. 0
In2 In0+ 16 l 0.1453(5) 0.6453(5) 0.1650(4) . 1. 0
Bi1 Bi0+ 4 a 0 0 0.25 . 1. 0
Bi2 Bi0+ 8 h 0.3448(4) 0.8448(4) 0 . 1. 0
loop_
_atom_site_aniso_label
_atom_site_aniso_type_symbol
_atom_site_aniso_U_11
_atom_site_aniso_U_22
_atom_site_aniso_U_33
_atom_site_aniso_U_12
_atom_site_aniso_U_13
_atom_site_aniso_U_23
In1 In0+ 0.008(3) 0.008(3) 0.007(3) 0 0 0
In2 In0+ 0.010(2) 0.010(2) 0.012(2) 0 0 0
Bi1 Bi0+ 0.011(2) 0.011(2) 0.003(2) 0 0 0
Bi2 Bi0+ 0.003(1) 0.003(1) 0.006(1) 0 0 0
#End of TTdata_1244-ICSD