
#(C) 2017 by FIZ Karlsruhe - Leibniz Institute for Information Infrastructure.  All rights reserved.
data_1395-ICSD
_database_code_ICSD 1395
_audit_creation_date 1980-01-01
_audit_update_record 2010-02-01
_chemical_name_systematic 'Ammonium rhenate(VII)'
_chemical_formula_structural '(N H4) (Re O4)'
_chemical_formula_sum 'H4 N1 O4 Re1'
_chemical_name_structure_type NH4IO4
_exptl_crystal_density_diffrn 3.96
_publ_section_title 'Ammonium perrhenate at 295 and 135 K'
loop_
_citation_id
_citation_journal_full
_citation_year
_citation_journal_volume
_citation_page_first
_citation_page_last
_citation_journal_id_ASTM
primary 'Acta Crystallographica B (24,1968-38,1982)' 1978 34 259 261 ACBCAR
loop_
_publ_author_name
'Kruger, G.J.'
'Reynhardt, E.C.'
_cell_length_a 5.892(3)
_cell_length_b 5.892(3)
_cell_length_c 12.970(5)
_cell_angle_alpha 90.
_cell_angle_beta 90.
_cell_angle_gamma 90.
_cell_volume 450.26
_cell_formula_units_Z 4
_symmetry_space_group_name_H-M 'I 41/a S'
_symmetry_Int_Tables_number 88
_refine_ls_R_factor_all 0.017
loop_
_symmetry_equiv_pos_site_id
_symmetry_equiv_pos_as_xyz
1 'y, -x+1/2, z+1/4'
2 '-y, x+1/2, z+1/4'
3 'y, -x, -z'
4 '-y, x, -z'
5 '-x, -y+1/2, -z+1/4'
6 'x, y+1/2, -z+1/4'
7 '-x, -y, z'
8 'x, y, z'
9 'y+1/2, -x, z+3/4'
10 '-y+1/2, x, z+3/4'
11 'y+1/2, -x+1/2, -z+1/2'
12 '-y+1/2, x+1/2, -z+1/2'
13 '-x+1/2, -y, -z+3/4'
14 'x+1/2, y, -z+3/4'
15 '-x+1/2, -y+1/2, z+1/2'
16 'x+1/2, y+1/2, z+1/2'
loop_
_atom_type_symbol
_atom_type_oxidation_number
Re7+ 7
N3- -3
O2- -2
H1+ 1
loop_
_atom_site_label
_atom_site_type_symbol
_atom_site_symmetry_multiplicity
_atom_site_Wyckoff_symbol
_atom_site_fract_x
_atom_site_fract_y
_atom_site_fract_z
_atom_site_B_iso_or_equiv
_atom_site_occupancy
_atom_site_attached_hydrogens
Re1 Re7+ 4 a 0 0 0 . 1. 0
N1 N3- 4 b 0 0 0.5 . 1. 0
O1 O2- 16 f 0.2119(8) 0.3883(8) 0.1742(4) . 1. 0
loop_
_atom_site_aniso_label
_atom_site_aniso_type_symbol
_atom_site_aniso_U_11
_atom_site_aniso_U_22
_atom_site_aniso_U_33
_atom_site_aniso_U_12
_atom_site_aniso_U_13
_atom_site_aniso_U_23
Re1 Re7+ 0.0189(2) 0.0189(2) 0.0217(2) 0 0 0
N1 N3- 0.0320(29) 0.0320(29) 0.0247(43) 0 0 0
O1 O2- 0.0361(24) 0.0349(24) 0.0353(23) 0.0085(20) 0.0132(21) -.0010(21)
#End of TTdata_1395-ICSD