
#(C) 2017 by FIZ Karlsruhe - Leibniz Institute for Information Infrastructure.  All rights reserved.
data_14016-ICSD
_database_code_ICSD 14016
_audit_creation_date 1980-01-01
_audit_update_record 2000-07-15
_chemical_name_systematic 'Iron(III) tetraoxoniobate'
_chemical_formula_structural 'Fe (Nb O4)'
_chemical_formula_sum 'Fe1 Nb1 O4'
_chemical_name_structure_type VO2(HT)
_exptl_crystal_density_diffrn 4.86
_publ_section_title
'Fe Nb O4. Untersuchungen an Einkristallen mit Wolframit-und Al Nb O4-Struktur'
loop_
_citation_id
_citation_journal_full
_citation_year
_citation_journal_volume
_citation_page_first
_citation_page_last
_citation_journal_id_ASTM
primary 'Zeitschrift fuer Anorganische und Allgemeine Chemie (1950) (DE)' 1979
456 99 105 ZAACAB
loop_
_publ_author_name
'Harder, M.'
'Mueller Buschbaum, H.'
_cell_length_a 12.308
_cell_length_b 3.771
_cell_length_c 6.569
_cell_angle_alpha 90.
_cell_angle_beta 107.6
_cell_angle_gamma 90.
_cell_volume 290.62
_cell_formula_units_Z 4
_symmetry_space_group_name_H-M 'C 1 2/m 1'
_symmetry_Int_Tables_number 12
_refine_ls_R_factor_all 0.088
loop_
_symmetry_equiv_pos_site_id
_symmetry_equiv_pos_as_xyz
1 '-x, y, -z'
2 '-x, -y, -z'
3 'x, -y, z'
4 'x, y, z'
5 '-x+1/2, y+1/2, -z'
6 '-x+1/2, -y+1/2, -z'
7 'x+1/2, -y+1/2, z'
8 'x+1/2, y+1/2, z'
loop_
_atom_type_symbol
_atom_type_oxidation_number
Fe3+ 3
Nb5+ 5
O2- -2
loop_
_atom_site_label
_atom_site_type_symbol
_atom_site_symmetry_multiplicity
_atom_site_Wyckoff_symbol
_atom_site_fract_x
_atom_site_fract_y
_atom_site_fract_z
_atom_site_B_iso_or_equiv
_atom_site_occupancy
_atom_site_attached_hydrogens
Fe1 Fe3+ 4 i 0.1947 0 0.7988 0.86 1. 0
Nb1 Nb5+ 4 i 0.1023 0 0.2291 0.65 1. 0
O1 O2- 4 i 0.262 0 0.146 0.29 1. 0
O2 O2- 4 i 0.362 0 0.799 0.36 1. 0
O3 O2- 4 i 0.058 0 0.869 0.56 1. 0
O4 O2- 4 i 0.135 0 0.511 0.46 1. 0
#End of TTdata_14016-ICSD