
#(C) 2017 by FIZ Karlsruhe - Leibniz Institute for Information Infrastructure.  All rights reserved.
data_14189-ICSD
_database_code_ICSD 14189
_audit_creation_date 1980-12-31
_audit_update_record 2013-02-01
_chemical_name_systematic 'Mercury dibismuth sulfide'
_chemical_formula_structural 'Hg Bi2 S4'
_chemical_formula_sum 'Bi2 Hg1 S4'
_chemical_name_structure_type HgBi2S4
_chemical_name_mineral Grumiplucite
_exptl_crystal_density_diffrn 7.
_publ_section_title

;
Hg Bi2 S4: Crystal structure and relationship with the pavonite homologous
series
;
loop_
_citation_id
_citation_journal_full
_citation_year
_citation_journal_volume
_citation_page_first
_citation_page_last
_citation_journal_id_ASTM
primary 'Acta Crystallographica B (24,1968-38,1982)' 1980 36 1300 1304 ACBCAR
loop_
_publ_author_name
'Mumme, W.G.'
'Watts, J.A.'
_cell_length_a 14.17(1)
_cell_length_b 4.06(1)
_cell_length_c 13.99(1)
_cell_angle_alpha 90.
_cell_angle_beta 118.27(1)
_cell_angle_gamma 90.
_cell_volume 708.85
_cell_formula_units_Z 4
_symmetry_space_group_name_H-M 'C 1 2/m 1'
_symmetry_Int_Tables_number 12
_refine_ls_R_factor_all 0.1
loop_
_symmetry_equiv_pos_site_id
_symmetry_equiv_pos_as_xyz
1 '-x, y, -z'
2 '-x, -y, -z'
3 'x, -y, z'
4 'x, y, z'
5 '-x+1/2, y+1/2, -z'
6 '-x+1/2, -y+1/2, -z'
7 'x+1/2, -y+1/2, z'
8 'x+1/2, y+1/2, z'
loop_
_atom_type_symbol
_atom_type_oxidation_number
Hg2+ 2
Bi3+ 3
S2- -2
loop_
_atom_site_label
_atom_site_type_symbol
_atom_site_symmetry_multiplicity
_atom_site_Wyckoff_symbol
_atom_site_fract_x
_atom_site_fract_y
_atom_site_fract_z
_atom_site_B_iso_or_equiv
_atom_site_occupancy
_atom_site_attached_hydrogens
Hg1 Hg2+ 2 a 0 0 0 . 1. 0
Hg2 Hg2+ 2 c 0 0 0.5 . 1. 0
Bi1 Bi3+ 4 i 0.2260(5) 0 0.3679(4) . 1. 0
Bi2 Bi3+ 4 i 0.3499(5) 0 0.1379(5) . 1. 0
S1 S2- 4 i 0.1859(27) 0.5 0.0648(28) . 1. 0
S2 S2- 4 i 0.4991(23) 0.5 0.1701(27) . 1. 0
S3 S2- 4 i 0.1244(26) 0.5 0.4280(25) . 1. 0
S4 S2- 4 i 0.3432(30) 0.5 0.3243(35) . 1. 0
loop_
_atom_site_aniso_label
_atom_site_aniso_type_symbol
_atom_site_aniso_beta_11
_atom_site_aniso_beta_22
_atom_site_aniso_beta_33
_atom_site_aniso_beta_12
_atom_site_aniso_beta_13
_atom_site_aniso_beta_23
Hg1 Hg2+ 0.0042(6) 0.043(15) 0.0037(5) 0 0.0022(4) 0
Hg2 Hg2+ 0.0036(5) 0.042(15) 0.0043(6) 0 0.0021(5) 0
Bi1 Bi3+ 0.0031(3) 0.0207(91) 0.0032(3) 0 0.0017(3) 0
Bi2 Bi3+ 0.0029(3) 0.0300(93) 0.0031(3) 0 0.0017(3) 0
S1 S2- 0.0018(20) 0.013(55) 0.0032(22) 0 0.0011(17) 0
S2 S2- 0.0011(22) 0.011(30) 0.0035(27) 0 0.0019(14) 0
S3 S2- 0.0032(21) 0.020(41) 0.0039(20) 0 0.0025(16) 0
S4 S2- 0.0024(22) 0.030(60) 0.0062(30) 0 0.0025(21) 0
#End of TTdata_14189-ICSD