
#(C) 2017 by FIZ Karlsruhe - Leibniz Institute for Information Infrastructure.  All rights reserved.
data_14205-ICSD
_database_code_ICSD 14205
_audit_creation_date 1986-10-09
_audit_update_record 2014-08-01
_chemical_name_systematic 'Hydrazinium chloride'
_chemical_formula_structural 'N2 H5 Cl'
_chemical_formula_sum 'H5 Cl1 N2'
_chemical_name_structure_type N2H5Cl
_exptl_crystal_density_diffrn 1.51
_publ_section_title 'The crystal structure of hydrazinium chloride, N2 H5 Cl'
loop_
_citation_id
_citation_journal_full
_citation_year
_citation_journal_volume
_citation_page_first
_citation_page_last
_citation_journal_id_ASTM
primary 'Acta Crystallographica (1,1948-23,1967)' 1952 5 293 294 ACCRA9
loop_
_publ_author_name
'Sakurai, K.'
'Tomiie, Y.'
_cell_length_a 12.49(1)
_cell_length_b 21.85(4)
_cell_length_c 4.41
_cell_angle_alpha 90.
_cell_angle_beta 90.
_cell_angle_gamma 90.
_cell_volume 1203.52
_cell_formula_units_Z 16
_symmetry_space_group_name_H-M 'F d d 2'
_symmetry_Int_Tables_number 43
_refine_ls_R_factor_all 0.15
loop_
_symmetry_equiv_pos_site_id
_symmetry_equiv_pos_as_xyz
1 'x+1/4, -y+1/4, z+1/4'
2 '-x+1/4, y+1/4, z+1/4'
3 '-x, -y, z'
4 'x, y, z'
5 'x+1/4, -y+3/4, z+3/4'
6 '-x+1/4, y+3/4, z+3/4'
7 '-x, -y+1/2, z+1/2'
8 'x, y+1/2, z+1/2'
9 'x+3/4, -y+1/4, z+3/4'
10 '-x+3/4, y+1/4, z+3/4'
11 '-x+1/2, -y, z+1/2'
12 'x+1/2, y, z+1/2'
13 'x+3/4, -y+3/4, z+1/4'
14 '-x+3/4, y+3/4, z+1/4'
15 '-x+1/2, -y+1/2, z'
16 'x+1/2, y+1/2, z'
loop_
_atom_type_symbol
_atom_type_oxidation_number
Cl1- -1
N2- -2
H1+ 1
loop_
_atom_site_label
_atom_site_type_symbol
_atom_site_symmetry_multiplicity
_atom_site_Wyckoff_symbol
_atom_site_fract_x
_atom_site_fract_y
_atom_site_fract_z
_atom_site_B_iso_or_equiv
_atom_site_occupancy
_atom_site_attached_hydrogens
Cl1 Cl1- 16 b 0.041 0.0835 0 2. 1. 0
N1 N2- 16 b 0.1032 0.2363 0.776 2. 1. 0
N2 N2- 16 b 0.0687 0.1922 0.549 2. 1. 0
#End of TTdata_14205-ICSD