
#(C) 2017 by FIZ Karlsruhe - Leibniz Institute for Information Infrastructure.  All rights reserved.
data_14201-ICSD
_database_code_ICSD 14201
_audit_creation_date 1986-10-14
_audit_update_record 2010-02-01
_chemical_name_systematic 'Cesium catena-trichlorodicuprate(I)'
_chemical_formula_structural 'Cs (Cu2 Cl3)'
_chemical_formula_sum 'Cl3 Cs1 Cu2'
_chemical_name_structure_type CsCu2Cl3
_exptl_crystal_density_diffrn 3.85
_publ_section_title 'The crystal structures of Cs Cu2 Cl3 and Cs Ag2 I3'
loop_
_citation_id
_citation_journal_full
_citation_year
_citation_journal_volume
_citation_page_first
_citation_page_last
_citation_journal_id_ASTM
primary 'Acta Crystallographica (1,1948-23,1967)' 1954 7 176 180 ACCRA9
loop_
_publ_author_name
'Brink, C.'
'Binnendijk, N.F.'
'van de Linde, J.'
_cell_length_a 9.49(2)
_cell_length_b 11.88(2)
_cell_length_c 5.61(4)
_cell_angle_alpha 90.
_cell_angle_beta 90.
_cell_angle_gamma 90.
_cell_volume 632.48
_cell_formula_units_Z 4
_symmetry_space_group_name_H-M 'C m c m'
_symmetry_Int_Tables_number 63
loop_
_symmetry_equiv_pos_site_id
_symmetry_equiv_pos_as_xyz
1 '-x, y, -z+1/2'
2 '-x, -y, z+1/2'
3 '-x, y, z'
4 '-x, -y, -z'
5 'x, -y, z+1/2'
6 'x, y, -z+1/2'
7 'x, -y, -z'
8 'x, y, z'
9 '-x+1/2, y+1/2, -z+1/2'
10 '-x+1/2, -y+1/2, z+1/2'
11 '-x+1/2, y+1/2, z'
12 '-x+1/2, -y+1/2, -z'
13 'x+1/2, -y+1/2, z+1/2'
14 'x+1/2, y+1/2, -z+1/2'
15 'x+1/2, -y+1/2, -z'
16 'x+1/2, y+1/2, z'
loop_
_atom_type_symbol
_atom_type_oxidation_number
Cs1+ 1
Cu1+ 1
Cl1- -1
loop_
_atom_site_label
_atom_site_type_symbol
_atom_site_symmetry_multiplicity
_atom_site_Wyckoff_symbol
_atom_site_fract_x
_atom_site_fract_y
_atom_site_fract_z
_atom_site_B_iso_or_equiv
_atom_site_occupancy
_atom_site_attached_hydrogens
Cs1 Cs1+ 4 c 0.5 0.183 0.25 . 1. 0
Cu1 Cu1+ 8 e 0.336 0.5 0 . 1. 0
Cl1 Cl1- 8 g 0.218 0.398 0.25 . 1. 0
Cl2 Cl1- 4 c 0.5 0.62 0.25 . 1. 0
#End of TTdata_14201-ICSD