
#(C) 2017 by FIZ Karlsruhe - Leibniz Institute for Information Infrastructure.  All rights reserved.
data_14244-ICSD
_database_code_ICSD 14244
_audit_creation_date 1980-01-01
_audit_update_record 2012-08-01
_chemical_name_systematic 'Barium azide'
_chemical_formula_structural 'Ba (N3)2'
_chemical_formula_sum 'Ba1 N6'
_chemical_name_structure_type Ba(N3)2
_exptl_crystal_density_diffrn 3.23
_publ_section_title 'Verfeinerung der Kristallstruktur von Bariumazid Ba (N3)2'
loop_
_citation_id
_citation_journal_full
_citation_year
_citation_journal_volume
_citation_page_first
_citation_page_last
_citation_journal_id_ASTM
primary

;
Zeitschrift fuer Kristallographie, Kristallgeometrie, Kristallphysik,
Kristallchemie (-144,1977)
; 1970 132 19 26 ZEKGAX
loop_
_publ_author_name
'Walitzi, E.M.'
'Krischner, H.'
_cell_length_a 9.63
_cell_length_b 4.41
_cell_length_c 5.43
_cell_angle_alpha 90.
_cell_angle_beta 99.34
_cell_angle_gamma 90.
_cell_volume 227.55
_cell_formula_units_Z 2
_symmetry_space_group_name_H-M 'P 1 21/m 1'
_symmetry_Int_Tables_number 11
_refine_ls_R_factor_all 0.097
loop_
_symmetry_equiv_pos_site_id
_symmetry_equiv_pos_as_xyz
1 'x, -y+1/2, z'
2 '-x, -y, -z'
3 '-x, y+1/2, -z'
4 'x, y, z'
loop_
_atom_type_symbol
_atom_type_oxidation_number
Ba2+ 2
N0+ -0.333
loop_
_atom_site_label
_atom_site_type_symbol
_atom_site_symmetry_multiplicity
_atom_site_Wyckoff_symbol
_atom_site_fract_x
_atom_site_fract_y
_atom_site_fract_z
_atom_site_B_iso_or_equiv
_atom_site_occupancy
_atom_site_attached_hydrogens
Ba1 Ba2+ 2 e 0.2181(2) 0.25 0.1715(3) . 1. 0
N1 N0+ 2 e 0.093(3) 0.75 0.860(5) . 1. 0
N2 N0+ 2 e 0.108(2) 0.75 0.646(6) . 1. 0
N3 N0+ 2 e 0.112(2) 0.75 0.437(4) . 1. 0
N4 N0+ 2 e 0.584(2) 0.25 0.779(8) . 1. 0
N5 N0+ 2 e 0.460(3) 0.25 0.750(5) . 1. 0
N6 N0+ 2 e 0.333(3) 0.25 0.702(5) . 1. 0
loop_
_atom_site_aniso_label
_atom_site_aniso_type_symbol
_atom_site_aniso_beta_11
_atom_site_aniso_beta_22
_atom_site_aniso_beta_33
_atom_site_aniso_beta_12
_atom_site_aniso_beta_13
_atom_site_aniso_beta_23
Ba1 Ba2+ 0.004 0.008 0.01 0 0.002 0
N1 N0+ 0.005 0.094 0.009 0 0.005 0
N2 N0+ 0.002 0.01 0.022 0 0.004 0
N3 N0+ 0.004 0.001 0.006 0 0.004 0
N4 N0+ 0.001 0.061 0.033 0 0.002 0
N5 N0+ 0.005 0.022 0.013 0 0.005 0
N6 N0+ 0.004 0.054 0.01 0 -.002 0
#End of TTdata_14244-ICSD