
data_14308-ICSD
_database_code_ICSD 14308
_audit_creation_date 1980-01-01
_audit_update_record 2007-04-01
_chemical_name_systematic 'Lanthanum oxide selenide (4/4/3)'
_chemical_formula_structural 'La4 O4 Se3'
_chemical_formula_sum 'La4 O4 Se3'
_exptl_crystal_density_diffrn 6.1
_cell_length_a 13.232(5)
_cell_length_b 8.590(8)
_cell_length_c 4.101(3)
_cell_angle_alpha 90.
_cell_angle_beta 90.
_cell_angle_gamma 90.
_cell_volume 466.13
_cell_formula_units_Z 2
_symmetry_space_group_name_H-M 'B 2 m m'
_symmetry_Int_Tables_number 38
_refine_ls_R_factor_all 0.08
loop_
_symmetry_equiv_pos_site_id
_symmetry_equiv_pos_as_xyz
1 'x, y, -z'
2 'x, -y, z'
3 'x, -y, -z'
4 'x, y, z'
5 'x+1/2, y, -z+1/2'
6 'x+1/2, -y, z+1/2'
7 'x+1/2, -y, -z+1/2'
8 'x+1/2, y, z+1/2'
loop_
_atom_type_symbol
_atom_type_oxidation_number
La3+ 3
Se1- -1
Se2- -2
O2- -2
loop_
_atom_site_label
_atom_site_type_symbol
_atom_site_symmetry_multiplicity
_atom_site_Wyckoff_symbol
_atom_site_fract_x
_atom_site_fract_y
_atom_site_fract_z
_atom_site_B_iso_or_equiv
_atom_site_occupancy
_atom_site_attached_hydrogens
La1 La3+ 2 a 0 0 0 . 1. 0
La2 La3+ 2 b 0.018 0.5 0 . 1. 0
La3 La3+ 4 c 0.186 0.236 0.5 . 1. 0
Se1 Se1- 4 c 0.356 0.356 0 . 1. 0
Se2 Se2- 2 a 0.311 0 0 . 1. 0
O1 O2- 4 c 0.092 0.244 0 0.33 1. 0
O2 O2- 2 a 0.085 0 0.5 0.41 1. 0
O3 O2- 2 b 0.123 0.5 0.5 0.24 1. 0
loop_
_atom_site_aniso_label
_atom_site_aniso_type_symbol
_atom_site_aniso_beta_11
_atom_site_aniso_beta_22
_atom_site_aniso_beta_33
_atom_site_aniso_beta_12
_atom_site_aniso_beta_13
_atom_site_aniso_beta_23
La1 La3+ 0.001 0.0015 0.0044 0 0 0
La2 La3+ 0.001 0.0012 0.0053 0 0 0
La3 La3+ 0.0009 0.0012 0.0052 -.0001 0 0
Se1 Se1- 0.0016 0.0033 0.0057 -.0005 0 0
Se2 Se2- 0.0011 0.003 0.0012 0 0 0
