
#(C) 2017 by FIZ Karlsruhe - Leibniz Institute for Information Infrastructure.  All rights reserved.
data_14349-ICSD
_database_code_ICSD 14349
_audit_creation_date 1980-01-01
_audit_update_record 2012-08-01
_chemical_name_systematic 'Molybdenum telluride (1/2)'
_chemical_formula_structural 'Mo Te2'
_chemical_formula_sum 'Mo1 Te2'
_chemical_name_structure_type MoTe2
_exptl_crystal_density_diffrn 7.68
_publ_section_title
'The crystal structures of W Te2 and high-temperature Mo Te2'
loop_
_citation_id
_citation_journal_full
_citation_year
_citation_journal_volume
_citation_page_first
_citation_page_last
_citation_journal_id_ASTM
primary 'Acta Crystallographica (1,1948-23,1967)' 1966 20 268 274 ACCRA9
loop_
_publ_author_name
'Brown, B.E.'
_cell_length_a 6.33
_cell_length_b 3.469
_cell_length_c 13.86
_cell_angle_alpha 90.
_cell_angle_beta 93.917
_cell_angle_gamma 90.
_cell_volume 303.64
_cell_formula_units_Z 4
_symmetry_space_group_name_H-M 'P 1 21/m 1'
_symmetry_Int_Tables_number 11
_refine_ls_R_factor_all 0.139
loop_
_symmetry_equiv_pos_site_id
_symmetry_equiv_pos_as_xyz
1 'x, -y+1/2, z'
2 '-x, -y, -z'
3 '-x, y+1/2, -z'
4 'x, y, z'
loop_
_atom_type_symbol
_atom_type_oxidation_number
Mo4+ 4
Te2- -2
loop_
_atom_site_label
_atom_site_type_symbol
_atom_site_symmetry_multiplicity
_atom_site_Wyckoff_symbol
_atom_site_fract_x
_atom_site_fract_y
_atom_site_fract_z
_atom_site_B_iso_or_equiv
_atom_site_occupancy
_atom_site_attached_hydrogens
Mo1 Mo4+ 2 e 0.1833(8) 0.25 0.0074(3) 0.21 1. 0
Mo2 Mo4+ 2 e 0.3181(8) -.25 0.5066(3) 0.23 1. 0
Te1 Te2- 2 e 0.5888(6) 0.25 0.1045(3) 0.28 1. 0
Te2 Te2- 2 e 0.0970(6) -.25 0.1486(3) 0.48 1. 0
Te3 Te2- 2 e 0.5568(6) -.25 0.3516(3) 0.41 1. 0
Te4 Te2- 2 e 0.0563(6) 0.25 0.3955(3) 0.33 1. 0
#End of TTdata_14349-ICSD