
#(C) 2017 by FIZ Karlsruhe - Leibniz Institute for Information Infrastructure.  All rights reserved.
data_14365-ICSD
_database_code_ICSD 14365
_audit_creation_date 1980-01-01
_audit_update_record 1987-04-16
_chemical_name_systematic 'Magnesium selenate(IV) hexahydrate'
_chemical_formula_structural 'Mg Se O3 (H2 O)6'
_chemical_formula_sum 'H12 Mg1 O9 Se1'
_chemical_name_structure_type MgSO3(H2O)6
_exptl_crystal_density_diffrn 2.09
_publ_section_title
'Structure Cristalline Precise du Selenite de Magnesium a Six Molecules d'Eau'
loop_
_citation_id
_citation_journal_full
_citation_year
_citation_journal_volume
_citation_page_first
_citation_page_last
_citation_journal_id_ASTM
primary 'Acta Crystallographica (1,1948-23,1967)' 1966 20 563 566 ACCRA9
loop_
_publ_author_name
'Weiss, R.'
'Wendling, J.P.'
'Grandjean, D.'
_cell_length_a 8.944(8)
_cell_length_b 8.944(8)
_cell_length_c 8.936(8)
_cell_angle_alpha 90.
_cell_angle_beta 90.
_cell_angle_gamma 120.
_cell_volume 619.07
_cell_formula_units_Z 3
_symmetry_space_group_name_H-M 'R 3 H'
_symmetry_Int_Tables_number 146
_refine_ls_R_factor_all 0.096
loop_
_symmetry_equiv_pos_site_id
_symmetry_equiv_pos_as_xyz
1 '-x+y, -x, z'
2 '-y, x-y, z'
3 'x, y, z'
4 '-x+y+2/3, -x+1/3, z+1/3'
5 '-y+2/3, x-y+1/3, z+1/3'
6 'x+2/3, y+1/3, z+1/3'
7 '-x+y+1/3, -x+2/3, z+2/3'
8 '-y+1/3, x-y+2/3, z+2/3'
9 'x+1/3, y+2/3, z+2/3'
loop_
_atom_type_symbol
_atom_type_oxidation_number
Mg2+ 2
Se4+ 4
O2- -2
H1+ 1
loop_
_atom_site_label
_atom_site_type_symbol
_atom_site_symmetry_multiplicity
_atom_site_Wyckoff_symbol
_atom_site_fract_x
_atom_site_fract_y
_atom_site_fract_z
_atom_site_B_iso_or_equiv
_atom_site_occupancy
_atom_site_attached_hydrogens
Mg1 Mg2+ 3 a 0 0 0 2.45 1. 0
Se1 Se4+ 3 a 0 0 0.5239(7) 1.56 1. 0
O1 O2- 9 b 0.0562(5) 0.1895(5) 0.4370(5) 2.05 1. 0
O2 O2- 9 b 0.1903(5) 0.1933(5) 0.8670(5) 3.81 1. 0
O3 O2- 9 b 0.1829(5) -.0034(5) 0.1384(5) 3. 1. 0
#End of TTdata_14365-ICSD