
data_14397-ICSD
_database_code_ICSD 14397
_audit_creation_date 1980-01-01
_audit_update_record 2017-08-01
_chemical_name_systematic 'Aluminium carbide (4/3)'
_chemical_formula_structural 'Al4 C3'
_chemical_formula_sum 'C3 Al4'
_exptl_crystal_density_diffrn 3.
_cell_length_a 8.52
_cell_length_b 8.52
_cell_length_c 8.52
_cell_angle_alpha 22.54
_cell_angle_beta 22.54
_cell_angle_gamma 22.54
_cell_volume 79.72
_cell_formula_units_Z 1
_symmetry_space_group_name_H-M 'R 3 m R'
_symmetry_Int_Tables_number 160
_refine_ls_R_factor_all 0.12
loop_
_symmetry_equiv_pos_site_id
_symmetry_equiv_pos_as_xyz
1 'z, y, x'
2 'z, x, y'
3 'x, z, y'
4 'y, z, x'
5 'y, x, z'
6 'x, y, z'
loop_
_atom_type_symbol
_atom_type_oxidation_number
Al0+ 0
C0+ 0
loop_
_atom_site_label
_atom_site_type_symbol
_atom_site_symmetry_multiplicity
_atom_site_Wyckoff_symbol
_atom_site_fract_x
_atom_site_fract_y
_atom_site_fract_z
_atom_site_B_iso_or_equiv
_atom_site_occupancy
_atom_site_attached_hydrogens
Al1 Al0+ 1 a 0.705(1) 0.705(1) 0.705(1) 0.2(2) 1. 0
Al2 Al0+ 1 a 0.129(1) 0.129(1) 0.129(1) 0.5(2) 1. 0
Al3 Al0+ 1 a 0.869(1) 0.869(1) 0.869(1) 0.5(2) 1. 0
Al4 Al0+ 1 a 0.296(1) 0.296(1) 0.296(1) 0.2(2) 1. 0
C1 C0+ 1 a 0 0 0.000(2) 0.7(4) 1. 0
C2 C0+ 1 a 0.781(2) 0.781(2) 0.781(2) 0.7(4) 1. 0
C3 C0+ 1 a 0.217(2) 0.217(2) 0.217(2) 1.2(4) 1. 0
