
data_14401-ICSD
_database_code_ICSD 14401
_audit_creation_date 1980-01-01
_audit_update_record 2017-08-01
_chemical_name_systematic 'Aluminium carbide nitride (8/3/4)'
_chemical_formula_structural 'Al8 C3 N4'
_chemical_formula_sum 'C3 Al8 N4'
_chemical_name_structure_type Al8C3N4
_exptl_crystal_density_diffrn 3.12
_cell_length_a 18.45
_cell_length_b 18.45
_cell_length_c 18.45
_cell_angle_alpha 9.98
_cell_angle_beta 9.98
_cell_angle_gamma 9.98
_cell_volume 163.77
_cell_formula_units_Z 1
_symmetry_space_group_name_H-M 'R 3 m R'
_symmetry_Int_Tables_number 160
_refine_ls_R_factor_all 0.17
loop_
_symmetry_equiv_pos_site_id
_symmetry_equiv_pos_as_xyz
1 'z, y, x'
2 'z, x, y'
3 'x, z, y'
4 'y, z, x'
5 'y, x, z'
6 'x, y, z'
loop_
_atom_type_symbol
_atom_type_oxidation_number
Al0+ 0
N0+ 0
C0+ 0
loop_
_atom_site_label
_atom_site_type_symbol
_atom_site_symmetry_multiplicity
_atom_site_Wyckoff_symbol
_atom_site_fract_x
_atom_site_fract_y
_atom_site_fract_z
_atom_site_B_iso_or_equiv
_atom_site_occupancy
_atom_site_attached_hydrogens
Al1 Al0+ 1 a 0.6852(10) 0.6852(10) 0.6852(10) 0.5(3) 1. 0
Al2 Al0+ 1 a 0.0633(10) 0.0633(10) 0.0633(10) 0.4(3) 1. 0
Al3 Al0+ 1 a 0.7752(10) 0.7752(10) 0.7752(10) 0.1(3) 1. 0
Al4 Al0+ 1 a 0.1494(10) 0.1494(10) 0.1494(10) 0.6(3) 1. 0
Al5 Al0+ 1 a 0.8522(10) 0.8522(10) 0.8522(10) 0.8(3) 1. 0
Al6 Al0+ 1 a 0.2268(10) 0.2268(10) 0.2268(10) 0.4(3) 1. 0
Al7 Al0+ 1 a 0.9365(10) 0.9365(10) 0.9365(10) 0.2(3) 1. 0
Al8 Al0+ 1 a 0.3150(10) 0.3150(10) 0.3150(10) 0.3(3) 1. 0
N1 N0+ 1 a 0.7212(18) 0.7212(18) 0.7212(18) 0.5(7) 1. 0
N2 N0+ 1 a 0.0993(18) 0.0993(18) 0.0993(18) 0.8(7) 1. 0
N3 N0+ 1 a 0.9005(18) 0.9005(18) 0.9005(18) 0.1(7) 1. 0
N4 N0+ 1 a 0.2788(18) 0.2788(18) 0.2788(18) 0.6(7) 1. 0
C1 C0+ 1 a 0.0000(18) 0.0000(18) 0.0000(18) 0.9(7) 1. 0
C2 C0+ 1 a 0.8112(18) 0.8112(18) 0.8112(18) 1.2(7) 1. 0
C3 C0+ 1 a 0.1898(18) 0.1898(18) 0.1898(18) 1.0(7) 1. 0
