
#(C) 2017 by FIZ Karlsruhe - Leibniz Institute for Information Infrastructure.  All rights reserved.
data_150149-ICSD
_database_code_ICSD 150149
_audit_creation_date 2006-04-01
_chemical_name_systematic 'Lanthanum rhodium boride carbide (1/2/2/1)'
_chemical_formula_structural 'La Rh2 B2 C'
_chemical_formula_sum 'C1 B2 La1 Rh2'
_chemical_name_structure_type LaRh2CB2
_exptl_crystal_density_diffrn 7.95
_publ_section_title

;
Synthesis and characterization of new quaternary borocarbides R Rh2 B2 C (R =
rare earth)
;
loop_
_citation_id
_citation_journal_full
_citation_year
_citation_journal_volume
_citation_page_first
_citation_page_last
_citation_journal_id_ASTM
primary 'Journal of Solid State Chemistry' 1997 133 77 81 JSSCBI
loop_
_publ_author_name
'Ye Jinhua'
'Shishido, T.'
'Sasaki, T.'
'Takahashi, T.'
'Obara, K.'
'Note, R.'
'Matsumoto, T.'
'Fukuda, T.'
_cell_length_a 3.9065(6)
_cell_length_b 3.9065(6)
_cell_length_c 10.259(2)
_cell_angle_alpha 90.
_cell_angle_beta 90.
_cell_angle_gamma 90.
_cell_volume 156.56
_cell_formula_units_Z 2
_symmetry_space_group_name_H-M 'I 4/m m m'
_symmetry_Int_Tables_number 139
loop_
_symmetry_equiv_pos_site_id
_symmetry_equiv_pos_as_xyz
1 'y, x, -z'
2 '-y, -x, -z'
3 '-y, x, -z'
4 'y, -x, -z'
5 '-x, y, -z'
6 'x, -y, -z'
7 'x, y, -z'
8 '-x, -y, -z'
9 '-y, -x, z'
10 'y, x, z'
11 'y, -x, z'
12 '-y, x, z'
13 'x, -y, z'
14 '-x, y, z'
15 '-x, -y, z'
16 'x, y, z'
17 'y+1/2, x+1/2, -z+1/2'
18 '-y+1/2, -x+1/2, -z+1/2'
19 '-y+1/2, x+1/2, -z+1/2'
20 'y+1/2, -x+1/2, -z+1/2'
21 '-x+1/2, y+1/2, -z+1/2'
22 'x+1/2, -y+1/2, -z+1/2'
23 'x+1/2, y+1/2, -z+1/2'
24 '-x+1/2, -y+1/2, -z+1/2'
25 '-y+1/2, -x+1/2, z+1/2'
26 'y+1/2, x+1/2, z+1/2'
27 'y+1/2, -x+1/2, z+1/2'
28 '-y+1/2, x+1/2, z+1/2'
29 'x+1/2, -y+1/2, z+1/2'
30 '-x+1/2, y+1/2, z+1/2'
31 '-x+1/2, -y+1/2, z+1/2'
32 'x+1/2, y+1/2, z+1/2'
loop_
_atom_type_symbol
_atom_type_oxidation_number
La0+ 0
Rh0+ 0
B0+ 0
C0+ 0
loop_
_atom_site_label
_atom_site_type_symbol
_atom_site_symmetry_multiplicity
_atom_site_Wyckoff_symbol
_atom_site_fract_x
_atom_site_fract_y
_atom_site_fract_z
_atom_site_B_iso_or_equiv
_atom_site_occupancy
_atom_site_attached_hydrogens
La1 La0+ 2 a 0 0 0 . 1. 0
Rh1 Rh0+ 4 d 0 0.5 0.25 . 1. 0
B1 B0+ 4 e 0 0 0.352 . 1. 0
C1 C0+ 2 b 0.5 0.5 0 . 1. 0
#End of TTdata_150149-ICSD