
#(C) 2017 by FIZ Karlsruhe - Leibniz Institute for Information Infrastructure.  All rights reserved.
data_150345-ICSD
_database_code_ICSD 150345
_audit_creation_date 2006-04-01
_chemical_name_systematic 'Mercury iodide - red'
_chemical_formula_structural 'Hg I2'
_chemical_formula_sum 'Hg1 I2'
_chemical_name_structure_type HgI2
_exptl_crystal_density_diffrn 6.7
_cell_measurement_temperature 295.
_cell_measurement_pressure 1100000.
_publ_section_title
'High-pressure dissociation of silver mercury iodide, Ag2 Hg I4'
loop_
_citation_id
_citation_journal_full
_citation_year
_citation_journal_volume
_citation_page_first
_citation_page_last
_citation_journal_id_ASTM
primary 'Journal of Solid State Chemistry' 2004 177 3715 3720 JSSCBI
loop_
_publ_author_name
'Parfitt, D.C.'
'Hull, S.'
'Keen, D.A.'
'Crichton, W.'
_cell_length_a 4.31617(18)
_cell_length_b 4.31617(18)
_cell_length_c 12.0875(10)
_cell_angle_alpha 90.
_cell_angle_beta 90.
_cell_angle_gamma 90.
_cell_volume 225.18
_cell_formula_units_Z 2
_symmetry_space_group_name_H-M 'P 42/n m c Z'
_symmetry_Int_Tables_number 137
_refine_ls_R_factor_all 0.061
loop_
_symmetry_equiv_pos_site_id
_symmetry_equiv_pos_as_xyz
1 'y+1/2, x+1/2, -z+1/2'
2 '-y, x+1/2, -z+1/2'
3 'y+1/2, -x, -z+1/2'
4 '-y, -x, -z+1/2'
5 'x+1/2, y+1/2, -z'
6 '-x, y+1/2, -z'
7 'x+1/2, -y, -z'
8 '-x, -y, -z'
9 '-y+1/2, -x+1/2, z+1/2'
10 'y, -x+1/2, z+1/2'
11 '-y+1/2, x, z+1/2'
12 'y, x, z+1/2'
13 '-x+1/2, -y+1/2, z'
14 'x, -y+1/2, z'
15 '-x+1/2, y, z'
16 'x, y, z'
loop_
_atom_type_symbol
_atom_type_oxidation_number
I1- -1
Hg2+ 2
loop_
_atom_site_label
_atom_site_type_symbol
_atom_site_symmetry_multiplicity
_atom_site_Wyckoff_symbol
_atom_site_fract_x
_atom_site_fract_y
_atom_site_fract_z
_atom_site_B_iso_or_equiv
_atom_site_occupancy
_atom_site_attached_hydrogens
I1 I1- 4 d 0.25 0.25 0.3926(3) 3.30(9) 1. 0
Hg1 Hg2+ 2 a 0.75 0.25 0.75 3.77(9) 1. 0
#End of TTdata_150345-ICSD