
#(C) 2017 by FIZ Karlsruhe - Leibniz Institute for Information Infrastructure.  All rights reserved.
data_150306-ICSD
_database_code_ICSD 150306
_audit_creation_date 2006-04-01
_chemical_name_systematic 'Rubidium dicopper(I) bromide'
_chemical_formula_structural 'Rb Cu2 Br3'
_chemical_formula_sum 'Br3 Cu2 Rb1'
_chemical_name_structure_type CsCu2Cl3
_exptl_crystal_density_diffrn 4.42
_publ_section_title

;
Crystal structures and ionic conductivities of ternary derivatives of the
silver and copper monohalides - II: ordered phases within the (Ag X)x -
(MX)1-x and (CuX)x - (MX)1-x (M = K, Rb and Cs; X = Cl, Br and I) systems
;
loop_
_citation_id
_citation_journal_full
_citation_year
_citation_journal_volume
_citation_page_first
_citation_page_last
_citation_journal_id_ASTM
primary 'Journal of Solid State Chemistry' 2004 177 3156 3173 JSSCBI
loop_
_publ_author_name
'Hull, S.'
'Berastegui, P.'
_cell_length_a 9.8563(1)
_cell_length_b 12.4120(2)
_cell_length_c 5.55222(5)
_cell_angle_alpha 90.
_cell_angle_beta 90.
_cell_angle_gamma 90.
_cell_volume 679.24
_cell_formula_units_Z 4
_symmetry_space_group_name_H-M 'C m c m'
_symmetry_Int_Tables_number 63
_refine_ls_R_factor_all 0.0208
loop_
_symmetry_equiv_pos_site_id
_symmetry_equiv_pos_as_xyz
1 '-x, y, -z+1/2'
2 '-x, -y, z+1/2'
3 '-x, y, z'
4 '-x, -y, -z'
5 'x, -y, z+1/2'
6 'x, y, -z+1/2'
7 'x, -y, -z'
8 'x, y, z'
9 '-x+1/2, y+1/2, -z+1/2'
10 '-x+1/2, -y+1/2, z+1/2'
11 '-x+1/2, y+1/2, z'
12 '-x+1/2, -y+1/2, -z'
13 'x+1/2, -y+1/2, z+1/2'
14 'x+1/2, y+1/2, -z+1/2'
15 'x+1/2, -y+1/2, -z'
16 'x+1/2, y+1/2, z'
loop_
_atom_type_symbol
_atom_type_oxidation_number
Rb1+ 1
Cu1+ 1
Br1- -1
loop_
_atom_site_label
_atom_site_type_symbol
_atom_site_symmetry_multiplicity
_atom_site_Wyckoff_symbol
_atom_site_fract_x
_atom_site_fract_y
_atom_site_fract_z
_atom_site_B_iso_or_equiv
_atom_site_occupancy
_atom_site_attached_hydrogens
Rb1 Rb1+ 4 c 0 0.6865(3) 0.25 . 1. 0
Cu1 Cu1+ 8 e 0.8355(2) 0 0 . 1. 0
Br1 Br1- 4 c 0 0.1158(3) 0.25 . 1. 0
Br2 Br1- 8 g 0.7097(2) 0.8753(2) 0.25 . 1. 0
loop_
_atom_site_aniso_label
_atom_site_aniso_type_symbol
_atom_site_aniso_B_11
_atom_site_aniso_B_22
_atom_site_aniso_B_33
_atom_site_aniso_B_12
_atom_site_aniso_B_13
_atom_site_aniso_B_23
Rb1 Rb1+ 3.9(2) 4.7(2) 2.2(1) 0. 0. 0.
Cu1 Cu1+ 3.4(1) 4.1(1) 2.84(8) 0. 0. 1.1(1)
Br1 Br1- 2.7(1) 1.3(1) 2.4(1) 0. 0. 0.
Br2 Br1- 3.5(1) 5.1(2) 1.5(1) -2.6(1) 0. 0.
#End of TTdata_150306-ICSD