
#(C) 2017 by FIZ Karlsruhe - Leibniz Institute for Information Infrastructure.  All rights reserved.
data_150561-ICSD
_database_code_ICSD 150561
_audit_creation_date 2006-04-01
_audit_update_record 2013-02-01
_chemical_name_systematic 'Nickel boride (4/3) - m'
_chemical_formula_structural 'Ni4 B3'
_chemical_formula_sum 'B3 Ni4'
_chemical_name_structure_type Ni4B3
_exptl_crystal_density_diffrn 7.43
_publ_section_title 'An X-ray investigation of the nickel-boron system'
loop_
_citation_id
_citation_journal_full
_citation_year
_citation_journal_volume
_citation_page_first
_citation_page_last
_citation_journal_id_ASTM
primary 'American Ceramic Society: Bulletin' 1959 13 1193 1208 ACSBA7
loop_
_publ_author_name
'Rundqvist, S.'
_cell_length_a 6.43
_cell_length_b 4.882
_cell_length_c 7.818
_cell_angle_alpha 90.
_cell_angle_beta 103.3
_cell_angle_gamma 90.
_cell_volume 238.83
_cell_formula_units_Z 4
_symmetry_space_group_name_H-M 'C 1 2/c 1'
_symmetry_Int_Tables_number 15
loop_
_symmetry_equiv_pos_site_id
_symmetry_equiv_pos_as_xyz
1 'x, -y, z+1/2'
2 '-x, -y, -z'
3 '-x, y, -z+1/2'
4 'x, y, z'
5 'x+1/2, -y+1/2, z+1/2'
6 '-x+1/2, -y+1/2, -z'
7 '-x+1/2, y+1/2, -z+1/2'
8 'x+1/2, y+1/2, z'
loop_
_atom_type_symbol
_atom_type_oxidation_number
Ni0+ 0
B0+ 0
loop_
_atom_site_label
_atom_site_type_symbol
_atom_site_symmetry_multiplicity
_atom_site_Wyckoff_symbol
_atom_site_fract_x
_atom_site_fract_y
_atom_site_fract_z
_atom_site_B_iso_or_equiv
_atom_site_occupancy
_atom_site_attached_hydrogens
Ni1 Ni0+ 8 f 0.043(5) 0.25 0.483(9) . 1. 0
Ni2 Ni0+ 8 f 0.202(9) 0.568 0.287(7) . 1. 0
B1 B0+ 8 f 0.23(4) 0.09(1) 0.44(3) . 1. 0
B2 B0+ 4 e 0 0.08(8) 0.25 . 1. 0
#End of TTdata_150561-ICSD