
data_15065-ICSD
_database_code_ICSD 15065
_audit_creation_date 1980-01-01
_audit_update_record 2014-02-01
_chemical_name_systematic 'Cobalt(III) arsenide'
_chemical_formula_structural 'Co As'
_chemical_formula_sum 'As1 Co1'
_chemical_name_structure_type CoAs
_chemical_name_mineral Modderite
_exptl_crystal_density_diffrn 8.21
_cell_length_a 5.2867(11)
_cell_length_b 5.8682(14)
_cell_length_c 3.4892(8)
_cell_angle_alpha 90.
_cell_angle_beta 90.
_cell_angle_gamma 90.
_cell_volume 108.25
_cell_formula_units_Z 4
_symmetry_space_group_name_H-M 'P n a 21'
_symmetry_Int_Tables_number 33
loop_
_symmetry_equiv_pos_site_id
_symmetry_equiv_pos_as_xyz
1 'x+1/2, -y+1/2, z'
2 '-x+1/2, y+1/2, z+1/2'
3 '-x, -y, z+1/2'
4 'x, y, z'
loop_
_atom_type_symbol
_atom_type_oxidation_number
Co3+ 3
As3- -3
loop_
_atom_site_label
_atom_site_type_symbol
_atom_site_symmetry_multiplicity
_atom_site_Wyckoff_symbol
_atom_site_fract_x
_atom_site_fract_y
_atom_site_fract_z
_atom_site_B_iso_or_equiv
_atom_site_occupancy
_atom_site_attached_hydrogens
Co1 Co3+ 4 a 0.0023(10) 0.2000(5) 0.25 . 1. 0
As1 As3- 4 a 0.1996(7) 0.5869(3) 0.2716(22) . 1. 0
loop_
_atom_site_aniso_label
_atom_site_aniso_type_symbol
_atom_site_aniso_beta_11
_atom_site_aniso_beta_22
_atom_site_aniso_beta_33
_atom_site_aniso_beta_12
_atom_site_aniso_beta_13
_atom_site_aniso_beta_23
Co1 Co3+ 0.0086(22) 0.0007(4) 0.0084(12) 0 0 0
As1 As3- 0.0107(17) 0.0003(3) 0.0061(8) 0 0 0
