
data_150889-ICSD
_database_code_ICSD 150889
_audit_creation_date 2006-04-01
_chemical_name_systematic 'Iron nitride (2/1)'
_chemical_formula_structural 'Fe2 N'
_chemical_formula_sum 'Fe2 N1'
_exptl_crystal_density_diffrn 7.07
_cell_length_a 5.523
_cell_length_b 4.83
_cell_length_c 4.425
_cell_angle_alpha 90.
_cell_angle_beta 90.
_cell_angle_gamma 90.
_cell_volume 118.04
_cell_formula_units_Z 4
_symmetry_space_group_name_H-M 'P 1'
_symmetry_Int_Tables_number 1
loop_
_symmetry_equiv_pos_site_id
_symmetry_equiv_pos_as_xyz
1 'x, y, z'
loop_
_atom_type_symbol
_atom_type_oxidation_number
Fe0+ 0
N0+ 0
loop_
_atom_site_label
_atom_site_type_symbol
_atom_site_symmetry_multiplicity
_atom_site_Wyckoff_symbol
_atom_site_fract_x
_atom_site_fract_y
_atom_site_fract_z
_atom_site_B_iso_or_equiv
_atom_site_occupancy
_atom_site_attached_hydrogens
Fe1 Fe0+ 1 a 0 0 0 . 1. 0
Fe2 Fe0+ 1 a 0.5 0 0 . 1. 0
Fe3 Fe0+ 1 a 0.25 0.5 0 . 1. 0
Fe4 Fe0+ 1 a 0.75 0.5 0 . 1. 0
Fe5 Fe0+ 1 a 0 0.3333 0.5 . 1. 0
Fe6 Fe0+ 1 a 0.5 0.3333 0.5 . 1. 0
Fe7 Fe0+ 1 a 0.25 0.8333 0.5 . 1. 0
Fe8 Fe0+ 1 a 0.75 0.8333 0.5 . 1. 0
N1 N0+ 1 a 0.25 0.1667 0.25 . 1. 0
N2 N0+ 1 a 0.5 0.6667 0.25 . 1. 0
N3 N0+ 1 a 0.75 0.1667 0.75 . 1. 0
N4 N0+ 1 a 0 0.6667 0.75 . 1. 0
