
#(C) 2017 by FIZ Karlsruhe - Leibniz Institute for Information Infrastructure.  All rights reserved.
data_15147-ICSD
_database_code_ICSD 15147
_audit_creation_date 1980-01-01
_chemical_name_systematic 'Dirubidium copper dichloride dibromide'
_chemical_formula_structural 'Rb2 Cu Cl2 Br2'
_chemical_formula_sum 'Br2 Cl2 Cu1 Rb2'
_chemical_name_structure_type Rb2CuCl4
_exptl_crystal_density_diffrn 3.62
_publ_section_title

;
Preparation of compounds A2 Cu Cl4-x Brx (A= K, Rb, N H4, Tl; x= 0, 1, 2) and
crystal structures of compounds Rb2 Cu Cl4-x Brx with ordered distribution of
the anions
;
loop_
_citation_id
_citation_journal_full
_citation_year
_citation_journal_volume
_citation_page_first
_citation_page_last
_citation_journal_id_ASTM
primary 'Materials Research Bulletin' 1974 9 345 352 MRBUAC
loop_
_publ_author_name
'Witteveen, H.T.'
'Jongejan, D.L.'
'Brandwijk, V.'
_cell_length_a 16.252(2)
_cell_length_b 7.242(2)
_cell_length_c 7.260(2)
_cell_angle_alpha 90.
_cell_angle_beta 90.
_cell_angle_gamma 90.
_cell_volume 854.48
_cell_formula_units_Z 4
_symmetry_space_group_name_H-M 'C m c a'
_symmetry_Int_Tables_number 64
_refine_ls_R_factor_all 0.1186
loop_
_symmetry_equiv_pos_site_id
_symmetry_equiv_pos_as_xyz
1 '-x, -y+1/2, z+1/2'
2 '-x, y+1/2, -z+1/2'
3 '-x, y, z'
4 '-x, -y, -z'
5 'x, y+1/2, -z+1/2'
6 'x, -y+1/2, z+1/2'
7 'x, -y, -z'
8 'x, y, z'
9 '-x+1/2, -y, z+1/2'
10 '-x+1/2, y, -z+1/2'
11 '-x+1/2, y+1/2, z'
12 '-x+1/2, -y+1/2, -z'
13 'x+1/2, y, -z+1/2'
14 'x+1/2, -y, z+1/2'
15 'x+1/2, -y+1/2, -z'
16 'x+1/2, y+1/2, z'
loop_
_atom_type_symbol
_atom_type_oxidation_number
Cu2+ 2
Rb1+ 1
Cl1- -1
Br1- -1
loop_
_atom_site_label
_atom_site_type_symbol
_atom_site_symmetry_multiplicity
_atom_site_Wyckoff_symbol
_atom_site_fract_x
_atom_site_fract_y
_atom_site_fract_z
_atom_site_B_iso_or_equiv
_atom_site_occupancy
_atom_site_attached_hydrogens
Cu1 Cu2+ 4 a 0 0 0 4. 1. 0
Rb1 Rb1+ 8 d 0.3672(5) 0 0 3.1 1. 0
Cl1 Cl1- 8 f 0 0.221(2) 0.221(2) 2.1 1. 0
Br1 Br1- 8 d 0.1555(6) 0 0 1.2 1. 0
#End of TTdata_15147-ICSD