
data_151602-ICSD
_database_code_ICSD 151602
_audit_creation_date 2006-10-01
_chemical_name_systematic 'Nickel sulfide - beta'
_chemical_formula_structural 'Ni S'
_chemical_formula_sum 'Ni1 S1'
_chemical_name_structure_type NiS
_chemical_name_mineral Millerite
_exptl_crystal_density_diffrn 6.32
_cell_measurement_pressure 26800000.
_cell_length_a 9.097(1)
_cell_length_b 9.097(1)
_cell_length_c 2.9934(9)
_cell_angle_alpha 90.
_cell_angle_beta 90.
_cell_angle_gamma 120.
_cell_volume 214.53
_cell_formula_units_Z 9
_symmetry_space_group_name_H-M 'R 3 m H'
_symmetry_Int_Tables_number 160
_refine_ls_R_factor_all 0.035
loop_
_symmetry_equiv_pos_site_id
_symmetry_equiv_pos_as_xyz
1 '-x+y, y, z'
2 'x, x-y, z'
3 '-y, -x, z'
4 '-x+y, -x, z'
5 '-y, x-y, z'
6 'x, y, z'
7 '-x+y+2/3, y+1/3, z+1/3'
8 'x+2/3, x-y+1/3, z+1/3'
9 '-y+2/3, -x+1/3, z+1/3'
10 '-x+y+2/3, -x+1/3, z+1/3'
11 '-y+2/3, x-y+1/3, z+1/3'
12 'x+2/3, y+1/3, z+1/3'
13 '-x+y+1/3, y+2/3, z+2/3'
14 'x+1/3, x-y+2/3, z+2/3'
15 '-y+1/3, -x+2/3, z+2/3'
16 '-x+y+1/3, -x+2/3, z+2/3'
17 '-y+1/3, x-y+2/3, z+2/3'
18 'x+1/3, y+2/3, z+2/3'
loop_
_atom_type_symbol
_atom_type_oxidation_number
Ni2+ 2
S2- -2
loop_
_atom_site_label
_atom_site_type_symbol
_atom_site_symmetry_multiplicity
_atom_site_Wyckoff_symbol
_atom_site_fract_x
_atom_site_fract_y
_atom_site_fract_z
_atom_site_B_iso_or_equiv
_atom_site_occupancy
_atom_site_attached_hydrogens
Ni1 Ni2+ 9 b 0.91153(6) 0.08847(6) 0.4918(7) 0.0047(2) 1. 0
S1 S2- 9 b 0.1137(1) -0.1137(1) 0 0.0050(3) 1. 0
loop_
_atom_site_aniso_label
_atom_site_aniso_type_symbol
_atom_site_aniso_U_11
_atom_site_aniso_U_22
_atom_site_aniso_U_33
_atom_site_aniso_U_12
_atom_site_aniso_U_13
_atom_site_aniso_U_23
Ni1 Ni2+ 0.0047(3) 0.0047(3) 0.0049(3) 0.0026(4) 0.0000(1) -0.0000(1)
S1 S2- 0.0067(6) 0.0067(6) 0.0050(6) 0.0059(8) 0.0002(3) -0.0002(3)
