
data_151871-ICSD
_database_code_ICSD 151871
_audit_creation_date 2006-10-01
_chemical_name_systematic 'Silver pentaindium telluride'
_chemical_formula_structural 'Ag In5 Te8'
_chemical_formula_sum 'Ag1 In5 Te8'
_chemical_name_structure_type AgIn5Se8
_exptl_crystal_density_diffrn 5.93
_cell_measurement_temperature 298.
_cell_length_a 6.1952(2)
_cell_length_b 6.1952(2)
_cell_length_c 12.419(4)
_cell_angle_alpha 90.
_cell_angle_beta 90.
_cell_angle_gamma 90.
_cell_volume 476.65
_cell_formula_units_Z 1
_symmetry_space_group_name_H-M 'P -4 2 m'
_symmetry_Int_Tables_number 111
_refine_ls_R_factor_all 0.068
loop_
_symmetry_equiv_pos_site_id
_symmetry_equiv_pos_as_xyz
1 '-y, -x, z'
2 'y, x, z'
3 'y, -x, -z'
4 '-y, x, -z'
5 'x, -y, -z'
6 '-x, y, -z'
7 '-x, -y, z'
8 'x, y, z'
loop_
_atom_type_symbol
_atom_type_oxidation_number
Ag1+ 1
In3+ 3
Te2- -2
loop_
_atom_site_label
_atom_site_type_symbol
_atom_site_symmetry_multiplicity
_atom_site_Wyckoff_symbol
_atom_site_fract_x
_atom_site_fract_y
_atom_site_fract_z
_atom_site_B_iso_or_equiv
_atom_site_occupancy
_atom_site_attached_hydrogens
Ag1 Ag1+ 1 c 0 0 0.5 0.5(5) 1. 0
In1 In3+ 4 m 0 0.5 0.2491(6) 0.5(5) 1. 0
In2 In3+ 1 d 0.5 0.5 0 0.5(5) 1. 0
Te1 Te2- 4 n 0.2291(8) 0.2291(8) 0.1131(6) 0.5(5) 1. 0
Te2 Te2- 4 n 0.7150(8) 0.7150(8) 0.6171(6) 0.5(5) 1. 0
