
#(C) 2017 by FIZ Karlsruhe - Leibniz Institute for Information Infrastructure.  All rights reserved.
data_151929-ICSD
_database_code_ICSD 151929
_audit_creation_date 2006-10-01
_audit_update_record 2013-08-01
_chemical_name_systematic 'Copper(I) scandium oxide'
_chemical_formula_structural 'Cu Sc O2'
_chemical_formula_sum 'Cu1 O2 Sc1'
_chemical_name_structure_type CuFeO2
_exptl_crystal_density_diffrn 4.56
_publ_section_title 'Oxygen intercalation of two polymorphs of Cu Sc O2'
loop_
_citation_id
_citation_journal_full
_citation_year
_citation_journal_volume
_citation_page_first
_citation_page_last
_citation_journal_id_ASTM
primary 'Solid State Sciences' 2004 6 831 839 SSSCFJ
loop_
_publ_author_name
'Li Jun'
'Yokochi, A.F.T.'
'Sleight, A.W.'
_cell_length_a 3.2187(1)
_cell_length_b 3.2187(1)
_cell_length_c 11.4037(1)
_cell_angle_alpha 90.
_cell_angle_beta 90.
_cell_angle_gamma 120.
_cell_volume 102.31
_cell_formula_units_Z 2
_symmetry_space_group_name_H-M 'P 63/m m c'
_symmetry_Int_Tables_number 194
_refine_ls_R_factor_all 0.0416
loop_
_symmetry_equiv_pos_site_id
_symmetry_equiv_pos_as_xyz
1 'x, x-y, -z+1/2'
2 '-x+y, y, -z+1/2'
3 '-y, -x, -z+1/2'
4 '-x+y, -x, -z+1/2'
5 '-y, x-y, -z+1/2'
6 'x, y, -z+1/2'
7 '-x, -x+y, z+1/2'
8 'x-y, -y, z+1/2'
9 'y, x, z+1/2'
10 'x-y, x, z+1/2'
11 'y, -x+y, z+1/2'
12 '-x, -y, z+1/2'
13 '-x, -x+y, -z'
14 'x-y, -y, -z'
15 'y, x, -z'
16 'x-y, x, -z'
17 'y, -x+y, -z'
18 '-x, -y, -z'
19 'x, x-y, z'
20 '-x+y, y, z'
21 '-y, -x, z'
22 '-x+y, -x, z'
23 '-y, x-y, z'
24 'x, y, z'
loop_
_atom_type_symbol
_atom_type_oxidation_number
Cu1+ 1
Sc3+ 3
O2- -2
loop_
_atom_site_label
_atom_site_type_symbol
_atom_site_symmetry_multiplicity
_atom_site_Wyckoff_symbol
_atom_site_fract_x
_atom_site_fract_y
_atom_site_fract_z
_atom_site_B_iso_or_equiv
_atom_site_occupancy
_atom_site_attached_hydrogens
Cu1 Cu1+ 2 c 0.3333 0.6667 0.25 . 1. 0
Sc1 Sc3+ 2 a 0 0 0 . 1. 0
O1 O2- 4 f 0.3333 0.6667 0.08954(6) . 1. 0
loop_
_atom_site_aniso_label
_atom_site_aniso_type_symbol
_atom_site_aniso_U_11
_atom_site_aniso_U_22
_atom_site_aniso_U_33
_atom_site_aniso_U_12
_atom_site_aniso_U_13
_atom_site_aniso_U_23
Cu1 Cu1+ 0.0156(4) 0.0156(4) 0.0010(4) 0.0078(2) 0. 0.
Sc1 Sc3+ 0.0048(3) 0.0048(3) 0.0066(3) 0.0024(2) 0. 0.
O1 O2- 0.0052(4) 0.0052(4) 0.0024(4) 0.0026(2) 0. 0.
#End of TTdata_151929-ICSD