
data_152132-ICSD
_database_code_ICSD 152132
_audit_creation_date 2006-10-01
_chemical_name_systematic 'Zirconium platinum gallium (1/1/1)'
_chemical_formula_structural 'Zr Pt Ga'
_chemical_formula_sum 'Ga1 Pt1 Zr1'
_chemical_name_structure_type Mg2Ga
_exptl_crystal_density_diffrn 11.39
_cell_length_a 7.139(1)
_cell_length_b 7.139(1)
_cell_length_c 7.054(1)
_cell_angle_alpha 90.
_cell_angle_beta 90.
_cell_angle_gamma 120.
_cell_volume 311.34
_cell_formula_units_Z 6
_symmetry_space_group_name_H-M 'P -6 2 c'
_symmetry_Int_Tables_number 190
_refine_ls_R_factor_all 0.0271
loop_
_symmetry_equiv_pos_site_id
_symmetry_equiv_pos_as_xyz
1 '-x, -x+y, -z'
2 'x-y, -y, -z'
3 'y, x, -z'
4 '-x, -x+y, z+1/2'
5 'x-y, -y, z+1/2'
6 'y, x, z+1/2'
7 '-x+y, -x, -z+1/2'
8 '-y, x-y, -z+1/2'
9 'x, y, -z+1/2'
10 '-x+y, -x, z'
11 '-y, x-y, z'
12 'x, y, z'
loop_
_atom_type_symbol
_atom_type_oxidation_number
Zr0+ 0
Pt0+ 0
Ga0+ 0
loop_
_atom_site_label
_atom_site_type_symbol
_atom_site_symmetry_multiplicity
_atom_site_Wyckoff_symbol
_atom_site_fract_x
_atom_site_fract_y
_atom_site_fract_z
_atom_site_B_iso_or_equiv
_atom_site_occupancy
_atom_site_attached_hydrogens
Zr1 Zr0+ 6 h 0.5912(2) 0.9786(2) 0.75 0.0044(2) 1. 0
Pt1 Pt0+ 4 f 0.6667 0.3333 0.9698(1) 0.0042(1) 1. 0
Pt2 Pt0+ 2 b 0 0 0.75 0.0061(1) 1. 0
Ga1 Ga0+ 6 g 0.2673(2) 0 0 0.0045(2) 1. 0
loop_
_atom_site_aniso_label
_atom_site_aniso_type_symbol
_atom_site_aniso_U_11
_atom_site_aniso_U_22
_atom_site_aniso_U_33
_atom_site_aniso_U_12
_atom_site_aniso_U_13
_atom_site_aniso_U_23
Zr1 Zr0+ 0.0035(4) 0.0037(4) 0.0069(4) 0.0024(3) 0. 0.
Pt1 Pt0+ 0.0028(1) 0.0028(1) 0.0072(2) 0.0014(1) 0. 0.
Pt2 Pt0+ 0.0037(2) 0.0037(2) 0.0109(3) 0.0018(1) 0. 0.
Ga1 Ga0+ 0.0029(3) 0.0024(5) 0.0079(4) 0.0012(2) -0.0004(2) -0.0007(4)
