
#(C) 2017 by FIZ Karlsruhe - Leibniz Institute for Information Infrastructure.  All rights reserved.
data_15235-ICSD
_database_code_ICSD 15235
_audit_creation_date 1980-01-01
_audit_update_record 2013-02-01
_chemical_name_systematic 'Copper arsenic selenide (7/6/13)'
_chemical_formula_structural 'Cu7 As6 Se13'
_chemical_formula_sum 'As6 Cu7 Se13'
_exptl_crystal_density_diffrn 5.85
_publ_section_title

;
The application of the partial Patterson method and the thirteenfold hexagonal
superstructure of Cu7 As6 Se13
;
loop_
_citation_id
_citation_journal_full
_citation_year
_citation_journal_volume
_citation_page_first
_citation_page_last
_citation_journal_id_ASTM
primary

;
Zeitschrift fuer Kristallographie, Kristallgeometrie, Kristallphysik,
Kristallchemie (-144,1977)
; 1972 135 93 119 ZEKGAX
loop_
_publ_author_name
'Takeuchi, Y.'
'Horiuchi, H.'
_cell_length_a 14.025(3)
_cell_length_b 14.025(3)
_cell_length_c 9.61(3)
_cell_angle_alpha 90.
_cell_angle_beta 90.
_cell_angle_gamma 120.
_cell_volume 1637.04
_cell_formula_units_Z 3
_symmetry_space_group_name_H-M 'R 3 H'
_symmetry_Int_Tables_number 146
_refine_ls_R_factor_all 0.148
loop_
_symmetry_equiv_pos_site_id
_symmetry_equiv_pos_as_xyz
1 '-x+y, -x, z'
2 '-y, x-y, z'
3 'x, y, z'
4 '-x+y+2/3, -x+1/3, z+1/3'
5 '-y+2/3, x-y+1/3, z+1/3'
6 'x+2/3, y+1/3, z+1/3'
7 '-x+y+1/3, -x+2/3, z+2/3'
8 '-y+1/3, x-y+2/3, z+2/3'
9 'x+1/3, y+2/3, z+2/3'
loop_
_atom_type_symbol
_atom_type_oxidation_number
Se0+ 0
Cu0+ 0
As0+ 0
loop_
_atom_site_label
_atom_site_type_symbol
_atom_site_symmetry_multiplicity
_atom_site_Wyckoff_symbol
_atom_site_fract_x
_atom_site_fract_y
_atom_site_fract_z
_atom_site_B_iso_or_equiv
_atom_site_occupancy
_atom_site_attached_hydrogens
Se1 Se0+ 9 b 0.07109(40) 0.29380(44) -0.0066(13) 1.57 1. 0
Se2 Se0+ 9 b 0.31511(45) 0.23184(47) -0.0113(13) 1.8 1. 0
Se3 Se0+ 9 b 0.38300(46) 0.54878(51) 0.0147(10) 2.04 1. 0
Se4 Se0+ 9 b 0.54176(32) 0.15491(33) 0.0036(12) 0.6 1. 0
Se5 Se0+ 3 a 0 0 0 . 1. 0
Cu1 Cu0+ 9 b 0.36967(52) 0.53130(51) 0.7616(13) 1.33 1. 0
Cu2 Cu0+ 9 b 0.53267(53) 0.13618(64) 0.7587(16) 1.93 1. 0
Cu3 Cu0+ 3 a 0 0 0.7361(23) 3.37 1. 0
As1 As0+ 9 b 0.07548(53) 0.31044(46) 0.7535(12) 2.07 1. 0
As2 As0+ 9 b 0.31002(60) 0.23409(75) 0.7483(13) 2.08 1. 0
#End of TTdata_15235-ICSD