
#(C) 2017 by FIZ Karlsruhe - Leibniz Institute for Information Infrastructure.  All rights reserved.
data_15248-ICSD
_database_code_ICSD 15248
_audit_creation_date 1981-12-31
_audit_update_record 2013-02-01
_chemical_name_systematic 'Rhodium scandium silicide (1/1/2)'
_chemical_formula_structural 'Sc Rh Si2'
_chemical_formula_sum 'Rh1 Sc1 Si2'
_chemical_name_structure_type ScRhSi2
_exptl_crystal_density_diffrn 5.57
_publ_section_title 'Rhodium scandium disilicide'
loop_
_citation_id
_citation_journal_full
_citation_year
_citation_journal_volume
_citation_page_first
_citation_page_last
_citation_journal_id_ASTM
primary 'Acta Crystallographica B (24,1968-38,1982)' 1981 37 668 671 ACBCAR
loop_
_publ_author_name
'Chabot, B.'
'Braun, H.F.'
'Yvon, K.'
'Parthe, E.'
_cell_length_a 6.292(4)
_cell_length_b 4.025(4)
_cell_length_c 9.517(5)
_cell_angle_alpha 90.
_cell_angle_beta 90.
_cell_angle_gamma 90.
_cell_volume 241.02
_cell_formula_units_Z 4
_symmetry_space_group_name_H-M 'P n m a'
_symmetry_Int_Tables_number 62
_refine_ls_R_factor_all 0.052
loop_
_symmetry_equiv_pos_site_id
_symmetry_equiv_pos_as_xyz
1 'x+1/2, y, -z+1/2'
2 'x, -y+1/2, z'
3 '-x+1/2, y+1/2, z+1/2'
4 '-x, -y, -z'
5 '-x+1/2, -y, z+1/2'
6 '-x, y+1/2, -z'
7 'x+1/2, -y+1/2, -z+1/2'
8 'x, y, z'
loop_
_atom_type_symbol
_atom_type_oxidation_number
Sc0+ 0
Rh0+ 0
Si0+ 0
loop_
_atom_site_label
_atom_site_type_symbol
_atom_site_symmetry_multiplicity
_atom_site_Wyckoff_symbol
_atom_site_fract_x
_atom_site_fract_y
_atom_site_fract_z
_atom_site_B_iso_or_equiv
_atom_site_occupancy
_atom_site_attached_hydrogens
Sc1 Sc0+ 4 c 0.2385(4) 0.25 0.3181(3) 0.0052(5) 1. 0
Rh1 Rh0+ 4 c 0.5832(2) 0.25 0.9008(1) 0.0027(2) 1. 0
Si1 Si0+ 4 c 0.9573(6) 0.25 0.8413(4) 0.0051(7) 1. 0
Si2 Si0+ 4 c 0.2318(7) 0.25 0.0282(4) 0.0041(7) 1. 0
#End of TTdata_15248-ICSD