
#(C) 2017 by FIZ Karlsruhe - Leibniz Institute for Information Infrastructure.  All rights reserved.
data_15251-ICSD
_database_code_ICSD 15251
_audit_creation_date 1981-12-31
_audit_update_record 2011-02-01
_chemical_name_systematic 'Tantalum sulfide (1/3)'
_chemical_formula_structural 'Ta S3'
_chemical_formula_sum 'S3 Ta1'
_chemical_name_structure_type NbSe3
_exptl_crystal_density_diffrn 6.2
_publ_section_title

;
Structure and properties of the new phase of the pseudo one-dimensional
compound Ta S3
;
loop_
_citation_id
_citation_journal_full
_citation_year
_citation_journal_volume
_citation_page_first
_citation_page_last
_citation_journal_id_ASTM
primary 'Journal of Solid State Chemistry' 1981 36 118 123 JSSCBI
loop_
_publ_author_name
'Meerschaut, A.'
'Guemas, L.'
'Rouxel, J.'
_cell_length_a 9.515(2)
_cell_length_b 3.3412(4)
_cell_length_c 14.912(2)
_cell_angle_alpha 90.
_cell_angle_beta 109.99(2)
_cell_angle_gamma 90.
_cell_volume 445.51
_cell_formula_units_Z 6
_symmetry_space_group_name_H-M 'P 1 21/m 1'
_symmetry_Int_Tables_number 11
_refine_ls_R_factor_all 0.025
loop_
_symmetry_equiv_pos_site_id
_symmetry_equiv_pos_as_xyz
1 'x, -y+1/2, z'
2 '-x, -y, -z'
3 '-x, y+1/2, -z'
4 'x, y, z'
loop_
_atom_type_symbol
_atom_type_oxidation_number
Ta0+ 0
S0+ 0
loop_
_atom_site_label
_atom_site_type_symbol
_atom_site_symmetry_multiplicity
_atom_site_Wyckoff_symbol
_atom_site_fract_x
_atom_site_fract_y
_atom_site_fract_z
_atom_site_B_iso_or_equiv
_atom_site_occupancy
_atom_site_attached_hydrogens
Ta1 Ta0+ 2 e 0.64153(4) 0.25 0.11909(3) . 1. 0
Ta2 Ta0+ 2 e 0.69498(4) 0.25 0.79811(3) . 1. 0
Ta3 Ta0+ 2 e 0.29736(4) 0.25 0.45911(3) . 1. 0
S1 S0+ 2 e 0.5649(2) 0.25 0.9366(2) . 1. 0
S2 S0+ 2 e 0.1693(2) 0.25 0.8971(2) . 1. 0
S3 S0+ 2 e 0.2007(3) 0.25 0.7640(2) . 1. 0
S4 S0+ 2 e 0.1656(3) 0.25 0.0837(2) . 1. 0
S5 S0+ 2 e 0.1785(2) 0.25 0.2765(2) . 1. 0
S6 S0+ 2 e 0.5162(2) 0.25 0.2465(2) . 1. 0
S7 S0+ 2 e 0.9104(3) 0.25 0.5685(2) . 1. 0
S8 S0+ 2 e 0.5553(2) 0.25 0.5943(2) . 1. 0
S9 S0+ 2 e 0.7580(3) 0.25 0.4309(2) . 1. 0
loop_
_atom_site_aniso_label
_atom_site_aniso_type_symbol
_atom_site_aniso_beta_11
_atom_site_aniso_beta_22
_atom_site_aniso_beta_33
_atom_site_aniso_beta_12
_atom_site_aniso_beta_13
_atom_site_aniso_beta_23
Ta1 Ta0+ 0.00138(3) 0.00970(25) 0.00053(1) 0 0.00029(2) 0
Ta2 Ta0+ 0.00169(3) 0.00734(25) 0.00065(1) 0 0.00046(2) 0
Ta3 Ta0+ 0.00143(3) 0.01268(26) 0.00058(1) 0 0.00037(2) 0
S1 S0+ 0.00169(18) 0.0102(14) 0.00061(7) 0 0.00027(9) 0
S2 S0+ 0.00186(19) 0.0114(15) 0.00141(9) 0 0.00086(11) 0
S3 S0+ 0.00263(20) 0.0149(15) 0.00069(8) 0 0.00031(10) 0
S4 S0+ 0.00248(20) 0.0089(14) 0.00087(8) 0 0.00038(10) 0
S5 S0+ 0.00183(19) 0.0118(14) 0.00075(8) 0 0.00035(10) 0
S6 S0+ 0.00181(19) 0.0104(14) 0.00069(8) 0 0.00053(10) 0
S7 S0+ 0.00184(19) 0.0137(15) 0.00099(8) 0 0.00033(10) 0
S8 S0+ 0.00194(19) 0.0072(13) 0.00080(8) 0 0.00049(10) 0
S9 S0+ 0.00295(21) 0.0124(15) 0.00090(8) 0 0.00077(11) 0
#End of TTdata_15251-ICSD