
#(C) 2017 by FIZ Karlsruhe - Leibniz Institute for Information Infrastructure.  All rights reserved.
data_152811-ICSD
_database_code_ICSD 152811
_audit_creation_date 2006-10-01
_chemical_name_systematic 'Iron nitride (2/1)'
_chemical_formula_structural 'Fe2 N'
_chemical_formula_sum 'Fe2 N1'
_chemical_name_structure_type Fe2N-zeta
_exptl_crystal_density_diffrn 7.08
_publ_section_title

;
Systematic study of formation and crystal structure of 3d-transition metal
nitrides synthesized in a supercritical nitrogen fluid under 10 GPa and 1800 K
using diamond anvil cell and YAG laser heating
;
loop_
_citation_id
_citation_journal_full
_citation_year
_citation_journal_volume
_citation_page_first
_citation_page_last
_citation_journal_id_ASTM
primary 'Journal of Alloys and Compounds' 2005 403 131 142 JALCEU
loop_
_publ_author_name
'Hasegawa, M.'
'Yagi, T.'
_cell_length_a 4.423(4)
_cell_length_b 5.531(3)
_cell_length_c 4.821(3)
_cell_angle_alpha 90.
_cell_angle_beta 90.
_cell_angle_gamma 90.
_cell_volume 117.94
_cell_formula_units_Z 4
_symmetry_space_group_name_H-M 'P b c n'
_symmetry_Int_Tables_number 60
loop_
_symmetry_equiv_pos_site_id
_symmetry_equiv_pos_as_xyz
1 'x, -y, z+1/2'
2 '-x+1/2, y+1/2, z'
3 'x+1/2, y+1/2, -z+1/2'
4 '-x, -y, -z'
5 '-x, y, -z+1/2'
6 'x+1/2, -y+1/2, -z'
7 '-x+1/2, -y+1/2, z+1/2'
8 'x, y, z'
loop_
_atom_type_symbol
_atom_type_oxidation_number
Fe1+ 1.5
N3- -3
loop_
_atom_site_label
_atom_site_type_symbol
_atom_site_symmetry_multiplicity
_atom_site_Wyckoff_symbol
_atom_site_fract_x
_atom_site_fract_y
_atom_site_fract_z
_atom_site_B_iso_or_equiv
_atom_site_occupancy
_atom_site_attached_hydrogens
Fe1 Fe1+ 8 d 0.249 0.128 0.0827 . 1. 0
N1 N3- 4 c 0 0.364 0.25 . 1. 0
#End of TTdata_152811-ICSD