
#(C) 2017 by FIZ Karlsruhe - Leibniz Institute for Information Infrastructure.  All rights reserved.
data_153302-ICSD
_database_code_ICSD 153302
_audit_creation_date 2006-10-01
_chemical_name_systematic 'Distrontium germanium(II) nitride - beta'
_chemical_formula_structural 'Sr2 Ge N2'
_chemical_formula_sum 'Ge1 N2 Sr2'
_exptl_crystal_density_diffrn 4.84
_cell_measurement_temperature 173.
_publ_section_title

;
Synthesis and structure of a second polymorph of strontium germanium nitride:
beta-(Sr2 Ge N2)
;
loop_
_citation_id
_citation_journal_full
_citation_year
_citation_journal_volume
_citation_page_first
_citation_page_last
_citation_journal_id_ASTM
primary 'Bulletin of the Korean Chemical Society' 2005 26 786 790 BKCSDE
loop_
_publ_author_name
'Park Dong Gon'
'Gal, Z.A.'
'DiSalvo, F.J.'
_cell_length_a 5.441(1)
_cell_length_b 11.376(2)
_cell_length_c 12.229(2)
_cell_angle_alpha 90.
_cell_angle_beta 90.
_cell_angle_gamma 90.
_cell_volume 756.94
_cell_formula_units_Z 8
_symmetry_space_group_name_H-M 'C m c a'
_symmetry_Int_Tables_number 64
_refine_ls_R_factor_all 0.0303
loop_
_symmetry_equiv_pos_site_id
_symmetry_equiv_pos_as_xyz
1 '-x, -y+1/2, z+1/2'
2 '-x, y+1/2, -z+1/2'
3 '-x, y, z'
4 '-x, -y, -z'
5 'x, y+1/2, -z+1/2'
6 'x, -y+1/2, z+1/2'
7 'x, -y, -z'
8 'x, y, z'
9 '-x+1/2, -y, z+1/2'
10 '-x+1/2, y, -z+1/2'
11 '-x+1/2, y+1/2, z'
12 '-x+1/2, -y+1/2, -z'
13 'x+1/2, y, -z+1/2'
14 'x+1/2, -y, z+1/2'
15 'x+1/2, -y+1/2, -z'
16 'x+1/2, y+1/2, z'
loop_
_atom_type_symbol
_atom_type_oxidation_number
Sr2+ 2
Ge2+ 2
N3- -3
loop_
_atom_site_label
_atom_site_type_symbol
_atom_site_symmetry_multiplicity
_atom_site_Wyckoff_symbol
_atom_site_fract_x
_atom_site_fract_y
_atom_site_fract_z
_atom_site_B_iso_or_equiv
_atom_site_occupancy
_atom_site_attached_hydrogens
Sr1 Sr2+ 8 f 0 0.0479(1) 0.3576(1) 0.005(1) 1. 0
Sr2 Sr2+ 8 f 0 0.3564(1) 0.4411(1) 0.005(1) 1. 0
Ge1 Ge2+ 8 f 0 0.2398(1) 0.1799(1) 0.006(1) 1. 0
N1 N3- 8 f 0 0.0797(4) 0.1419(4) 0.006(1) 1. 0
N2 N3- 8 f 0 0.3389(5) 0.0597(4) 0.008(1) 1. 0
loop_
_atom_site_aniso_label
_atom_site_aniso_type_symbol
_atom_site_aniso_U_11
_atom_site_aniso_U_22
_atom_site_aniso_U_33
_atom_site_aniso_U_12
_atom_site_aniso_U_13
_atom_site_aniso_U_23
Sr1 Sr2+ 0.006(1) 0.006(1) 0.004(1) 0. 0. 0.001(1)
Sr2 Sr2+ 0.005(1) 0.006(1) 0.005(1) 0. 0. -0.001(1)
Ge1 Ge2+ 0.006(1) 0.005(1) 0.005(1) 0. 0. 0.001(1)
N1 N3- 0.006(2) 0.005(2) 0.007(2) 0. 0. 0.000(2)
N2 N3- 0.011(3) 0.010(3) 0.004(2) 0. 0. 0.003(2)
#End of TTdata_153302-ICSD