
#(C) 2017 by FIZ Karlsruhe - Leibniz Institute for Information Infrastructure.  All rights reserved.
data_15344-ICSD
_database_code_ICSD 15344
_audit_creation_date 1980-01-01
_audit_update_record 2011-02-01
_chemical_name_systematic 'Rhodium sulfide'
_chemical_formula_structural 'Rh2 S3'
_chemical_formula_sum 'Rh2 S3'
_chemical_name_structure_type Rh2S3
_chemical_name_mineral Bowieite
_exptl_crystal_density_diffrn 6.37
_publ_section_title
'A new structure type with octahedron pairs for Rh2 S3, Rh2 Se3 and Ir2 S3'
loop_
_citation_id
_citation_journal_full
_citation_year
_citation_journal_volume
_citation_page_first
_citation_page_last
_citation_journal_id_ASTM
primary 'Acta Crystallographica (1,1948-23,1967)' 1967 23 832 840 ACCRA9
loop_
_publ_author_name
'Parthe, E.'
'Hohnke, D.'
'Hulliger, F.'
_cell_length_a 8.462(3)
_cell_length_b 5.985(2)
_cell_length_c 6.138(2)
_cell_angle_alpha 90.
_cell_angle_beta 90.
_cell_angle_gamma 90.
_cell_volume 310.86
_cell_formula_units_Z 4
_symmetry_space_group_name_H-M 'P b c n'
_symmetry_Int_Tables_number 60
_refine_ls_R_factor_all 0.145
loop_
_symmetry_equiv_pos_site_id
_symmetry_equiv_pos_as_xyz
1 'x, -y, z+1/2'
2 '-x+1/2, y+1/2, z'
3 'x+1/2, y+1/2, -z+1/2'
4 '-x, -y, -z'
5 '-x, y, -z+1/2'
6 'x+1/2, -y+1/2, -z'
7 '-x+1/2, -y+1/2, z+1/2'
8 'x, y, z'
loop_
_atom_type_symbol
_atom_type_oxidation_number
Rh3+ 3
S2- -2
loop_
_atom_site_label
_atom_site_type_symbol
_atom_site_symmetry_multiplicity
_atom_site_Wyckoff_symbol
_atom_site_fract_x
_atom_site_fract_y
_atom_site_fract_z
_atom_site_B_iso_or_equiv
_atom_site_occupancy
_atom_site_attached_hydrogens
Rh1 Rh3+ 8 d 0.10645(8) 0.2517(3) 0.0338(2) 0.186 1. 0
S1 S2- 8 d 0.1518(3) 0.3906(5) 0.393(1) 0.169 1. 0
S2 S2- 4 c 0 0.9525(7) 0.25 0.149 1. 0
#End of TTdata_15344-ICSD