
data_153859-ICSD
_database_code_ICSD 153859
_audit_creation_date 2007-04-01
_audit_update_record 2013-02-01
_chemical_name_systematic 'Zirconium aluminium carbide (2/3/4)'
_chemical_formula_structural 'Zr2 Al3 C4'
_chemical_formula_sum 'C4 Al3 Zr2'
_chemical_name_structure_type Al4SiC4-Al5C3N
_exptl_crystal_density_diffrn 4.79
_cell_length_a 3.34680(6)
_cell_length_b 3.34680(6)
_cell_length_c 22.2394(3)
_cell_angle_alpha 90.
_cell_angle_beta 90.
_cell_angle_gamma 120.
_cell_volume 215.73
_cell_formula_units_Z 2
_symmetry_space_group_name_H-M 'P 63 m c'
_symmetry_Int_Tables_number 186
_refine_ls_R_factor_all 0.0606
loop_
_symmetry_equiv_pos_site_id
_symmetry_equiv_pos_as_xyz
1 '-x, -x+y, z+1/2'
2 'x-y, -y, z+1/2'
3 'y, x, z+1/2'
4 'x-y, x, z+1/2'
5 'y, -x+y, z+1/2'
6 '-x, -y, z+1/2'
7 'x, x-y, z'
8 '-x+y, y, z'
9 '-y, -x, z'
10 '-x+y, -x, z'
11 '-y, x-y, z'
12 'x, y, z'
loop_
_atom_type_symbol
_atom_type_oxidation_number
Zr0+ 0
Al0+ 0
C0+ 0
loop_
_atom_site_label
_atom_site_type_symbol
_atom_site_symmetry_multiplicity
_atom_site_Wyckoff_symbol
_atom_site_fract_x
_atom_site_fract_y
_atom_site_fract_z
_atom_site_B_iso_or_equiv
_atom_site_occupancy
_atom_site_attached_hydrogens
Zr1 Zr0+ 2 b 0.3333 0.6667 0.556(2) 0.10(5) 1. 0
Zr2 Zr0+ 2 b 0.3333 0.6667 0.939(2) 0.10(4) 1. 0
Al1 Al0+ 2 b 0.3333 0.6667 0.241(2) 0.11(6) 1. 0
Al2 Al0+ 2 a 0 0 0.157(2) 0.2(1) 1. 0
Al3 Al0+ 2 a 0 0 0.338(2) 0.2(1) 1. 0
C1 C0+ 2 b 0.3333 0.6667 0.127(2) 0.5(2) 1. 0
C2 C0+ 2 b 0.3333 0.6667 0.370(2) 0.4(3) 1. 0
C3 C0+ 2 a 0 0 0 0.6(2) 1. 0
C4 C0+ 2 a 0 0 0.249(3) 0.4(1) 1. 0
