
data_153907-ICSD
_database_code_ICSD 153907
_audit_creation_date 2007-04-01
_chemical_name_systematic 'Dipotassium catena-tetraselenodistannate(II)'
_chemical_formula_structural 'K2 (Sn2 Se4)'
_chemical_formula_sum 'K2 Se4 Sn2'
_exptl_crystal_density_diffrn 4.7
_cell_length_a 8.1524(12)
_cell_length_b 8.1524(12)
_cell_length_c 6.7152(13)
_cell_angle_alpha 90.
_cell_angle_beta 90.
_cell_angle_gamma 90.
_cell_volume 446.3
_cell_formula_units_Z 2
_symmetry_space_group_name_H-M 'I 4 c m'
_symmetry_Int_Tables_number 108
_refine_ls_R_factor_all 0.0777
loop_
_symmetry_equiv_pos_site_id
_symmetry_equiv_pos_as_xyz
1 'y+1/2, x+1/2, z'
2 '-y+1/2, -x+1/2, z'
3 'y, -x, z'
4 '-y, x, z'
5 'x+1/2, -y+1/2, z'
6 '-x+1/2, y+1/2, z'
7 '-x, -y, z'
8 'x, y, z'
9 'y, x, z+1/2'
10 '-y, -x, z+1/2'
11 'y+1/2, -x+1/2, z+1/2'
12 '-y+1/2, x+1/2, z+1/2'
13 'x, -y, z+1/2'
14 '-x, y, z+1/2'
15 '-x+1/2, -y+1/2, z+1/2'
16 'x+1/2, y+1/2, z+1/2'
loop_
_atom_type_symbol
_atom_type_oxidation_number
Sn2+ 2
Se1- -1.5
K1+ 1
loop_
_atom_site_label
_atom_site_type_symbol
_atom_site_symmetry_multiplicity
_atom_site_Wyckoff_symbol
_atom_site_fract_x
_atom_site_fract_y
_atom_site_fract_z
_atom_site_B_iso_or_equiv
_atom_site_occupancy
_atom_site_attached_hydrogens
Sn1 Sn2+ 4 b 0 0.5 0.1820(15) 0.0017(1) 1. 0
Se1 Se1- 8 c 0.1692(2) 0.6692(2) 0.4300(3) 0.0018(1) 1. 0
K1 K1+ 4 a 0 0 0.225(7) 0.0089(17) 1. 0
