
#(C) 2017 by FIZ Karlsruhe - Leibniz Institute for Information Infrastructure.  All rights reserved.
data_154371-ICSD
_database_code_ICSD 154371
_audit_creation_date 2007-04-01
_chemical_name_systematic 'Hexarubidium diferrate(III)'
_chemical_formula_structural 'Rb6 (Fe2 O6)'
_chemical_formula_sum 'Fe2 O6 Rb6'
_chemical_name_structure_type K6Fe2O6
_exptl_crystal_density_diffrn 4.25
_publ_section_title

;
Fehlende Glieder bekannter Reihen: die Oxoferrate(III) Rb8 (Fe2 O7), Rb6 (Fe2
O6) und K4 (Fe2 O5)
;
loop_
_citation_id
_citation_journal_full
_citation_year
_citation_journal_volume
_citation_page_first
_citation_page_last
_citation_journal_id_ASTM
primary 'Zeitschrift fuer Naturforschung, B: Chemical Sciences' 2005 60 732 740
ZNBSEN
loop_
_publ_author_name
'Frisch, G.'
'Roehr, C.'
_cell_length_a 7.418(2)
_cell_length_b 11.487(2)
_cell_length_c 6.8008(12)
_cell_angle_alpha 90.
_cell_angle_beta 103.65(2)
_cell_angle_gamma 90.
_cell_volume 563.13
_cell_formula_units_Z 2
_symmetry_space_group_name_H-M 'C 1 2/m 1'
_symmetry_Int_Tables_number 12
_refine_ls_R_factor_all 0.037
loop_
_symmetry_equiv_pos_site_id
_symmetry_equiv_pos_as_xyz
1 '-x, y, -z'
2 '-x, -y, -z'
3 'x, -y, z'
4 'x, y, z'
5 '-x+1/2, y+1/2, -z'
6 '-x+1/2, -y+1/2, -z'
7 'x+1/2, -y+1/2, z'
8 'x+1/2, y+1/2, z'
loop_
_atom_type_symbol
_atom_type_oxidation_number
Rb1+ 1
Fe3+ 3
O2- -2
loop_
_atom_site_label
_atom_site_type_symbol
_atom_site_symmetry_multiplicity
_atom_site_Wyckoff_symbol
_atom_site_fract_x
_atom_site_fract_y
_atom_site_fract_z
_atom_site_B_iso_or_equiv
_atom_site_occupancy
_atom_site_attached_hydrogens
Rb1 Rb1+ 4 h 0 0.80910(8) 0.5 0.0212(2) 1. 0
Rb2 Rb1+ 4 g 0 0.73507(8) 0 0.0254(2) 1. 0
Rb3 Rb1+ 4 i 0.37230(12) 0 0.65292(11) 0.0234(2) 1. 0
Fe1 Fe3+ 4 i 0.16243(16) 0 0.14469(16) 0.0143(2) 1. 0
O1 O2- 4 i 0.0989(9) 0 0.8508(8) 0.0250(14) 1. 0
O2 O2- 8 j 0.2180(7) 0.6318(4) 0.7357(6) 0.0223(10) 1. 0
#End of TTdata_154371-ICSD