
#(C) 2017 by FIZ Karlsruhe - Leibniz Institute for Information Infrastructure.  All rights reserved.
data_154362-ICSD
_database_code_ICSD 154362
_audit_creation_date 2007-04-01
_chemical_name_systematic 'Barium diantimono(III)dialuminate'
_chemical_formula_structural 'Ba (Sb2 Al2 O7)'
_chemical_formula_sum 'Al2 Ba1 O7 Sb2'
_exptl_crystal_density_diffrn 4.45
_publ_section_title

;
Aluminat-Pentelate(III) A(I)2 M2 Al2 O7 und A(II) M2 Al2 O7 (A(I) = Rb, Cs;
A(II) = Ba; M = As, Sb)
;
loop_
_citation_id
_citation_journal_full
_citation_year
_citation_journal_volume
_citation_page_first
_citation_page_last
_citation_journal_id_ASTM
primary 'Zeitschrift fuer Naturforschung, B: Chemical Sciences' 2005 60 419 425
ZNBSEN
loop_
_publ_author_name
'Emmerling, F.'
'Reinhard, C.'
'Zimper, S.'
'Roehr, C.'
_cell_length_a 5.455(8)
_cell_length_b 5.455(8)
_cell_length_c 23.773(13)
_cell_angle_alpha 90.
_cell_angle_beta 90.
_cell_angle_gamma 120.
_cell_volume 612.64
_cell_formula_units_Z 3
_symmetry_space_group_name_H-M 'R 3 2 H'
_symmetry_Int_Tables_number 155
_refine_ls_R_factor_all 0.0427
loop_
_symmetry_equiv_pos_site_id
_symmetry_equiv_pos_as_xyz
1 '-x, -x+y, -z'
2 'x-y, -y, -z'
3 'y, x, -z'
4 '-x+y, -x, z'
5 '-y, x-y, z'
6 'x, y, z'
7 '-x+2/3, -x+y+1/3, -z+1/3'
8 'x-y+2/3, -y+1/3, -z+1/3'
9 'y+2/3, x+1/3, -z+1/3'
10 '-x+y+2/3, -x+1/3, z+1/3'
11 '-y+2/3, x-y+1/3, z+1/3'
12 'x+2/3, y+1/3, z+1/3'
13 '-x+1/3, -x+y+2/3, -z+2/3'
14 'x-y+1/3, -y+2/3, -z+2/3'
15 'y+1/3, x+2/3, -z+2/3'
16 '-x+y+1/3, -x+2/3, z+2/3'
17 '-y+1/3, x-y+2/3, z+2/3'
18 'x+1/3, y+2/3, z+2/3'
loop_
_atom_type_symbol
_atom_type_oxidation_number
Ba2+ 2
Sb3+ 3
Al3+ 3
O2- -2
loop_
_atom_site_label
_atom_site_type_symbol
_atom_site_symmetry_multiplicity
_atom_site_Wyckoff_symbol
_atom_site_fract_x
_atom_site_fract_y
_atom_site_fract_z
_atom_site_B_iso_or_equiv
_atom_site_occupancy
_atom_site_attached_hydrogens
Ba1 Ba2+ 3 b 0 0 0.5 0.0175(8) 1. 0
Sb1 Sb3+ 6 c 0 0 0.27918(8) 0.0124(5) 1. 0
Al1 Al3+ 6 c 0 0 0.0722(3) 0.0110(18) 1. 0
O1 O2- 3 a 0 0 0 0.028(6) 1. 0
O2 O2- 18 f 0.334(3) 0.078(3) 0.0974(4) 0.026(4) 1. 0
#End of TTdata_154362-ICSD