
#(C) 2017 by FIZ Karlsruhe - Leibniz Institute for Information Infrastructure.  All rights reserved.
data_15464-ICSD
_database_code_ICSD 15464
_audit_creation_date 1980-01-01
_audit_update_record 2013-08-01
_chemical_name_systematic 'Lead diarsenic sulfide'
_chemical_formula_structural 'Pb As2 S4'
_chemical_formula_sum 'As2 Pb1 S4'
_chemical_name_structure_type PbAs2S4
_chemical_name_mineral Sartorite
_exptl_crystal_density_diffrn 4.97
_publ_section_title
'A refinement of the pseudo crystal structure of scleroclase Pb As2 S4'
loop_
_citation_id
_citation_journal_full
_citation_year
_citation_journal_volume
_citation_page_first
_citation_page_last
_citation_journal_id_ASTM
primary 'Acta Crystallographica (1,1948-23,1967)' 1961 14 1291 1292 ACCRA9
loop_
_publ_author_name
'Iitaka, Y.'
'Nowacki, W.'
_cell_length_a 19.62(2)
_cell_length_b 7.89(1)
_cell_length_c 4.19(5)
_cell_angle_alpha 90.
_cell_angle_beta 90.
_cell_angle_gamma 90.
_cell_volume 648.62
_cell_formula_units_Z 4
_symmetry_space_group_name_H-M 'P 1 21/n 1'
_symmetry_Int_Tables_number 14
_refine_ls_R_factor_all 0.147
loop_
_symmetry_equiv_pos_site_id
_symmetry_equiv_pos_as_xyz
1 '-x+1/2, y+1/2, -z+1/2'
2 '-x, -y, -z'
3 'x+1/2, -y+1/2, z+1/2'
4 'x, y, z'
loop_
_atom_type_symbol
_atom_type_oxidation_number
Pb2+ 2
As3+ 3
S2- -2
loop_
_atom_site_label
_atom_site_type_symbol
_atom_site_symmetry_multiplicity
_atom_site_Wyckoff_symbol
_atom_site_fract_x
_atom_site_fract_y
_atom_site_fract_z
_atom_site_B_iso_or_equiv
_atom_site_occupancy
_atom_site_attached_hydrogens
Pb1 Pb2+ 4 e 0.19373(14) 0.08717(29) 0.25 . 1. 0
As1 As3+ 4 e 0.00459(55) 0.8044(13) 0.25 . 1. 0
As2 As3+ 4 e -.12773(37) -.49598(79) 0.25 . 1. 0
S1 S2- 4 e -.22125(68) -0.3587(13) 0.25 . 1. 0
S2 S2- 4 e 0.15971(86) 0.6747(17) 0.25 . 1. 0
S3 S2- 4 e -.07790(64) -0.0221(15) 0.25 . 1. 0
S4 S2- 4 e 0.05195(83) 0.3338(14) 0.25 . 1. 0
loop_
_atom_site_aniso_label
_atom_site_aniso_type_symbol
_atom_site_aniso_B_11
_atom_site_aniso_B_22
_atom_site_aniso_B_33
_atom_site_aniso_B_12
_atom_site_aniso_B_13
_atom_site_aniso_B_23
Pb1 Pb2+ 7.09(13) 4.78(7) 3.39(7) -.40(6) 0 0
As1 As3+ 9.24(35) 7.61(30) 6.74(31) -.4073(27) 0 0
As2 As3+ 5.12(17) 4.25(16) 7.76(36) -.53(14) 0 0
S1 S2- 4.74(33) 2.82(24) 2.92(34) -1.10(25) 0 0
S2 S2- 4.11(45) 2.70(31) 12.8(12) 1.27(30) 0 0
S3 S2- 2.98(30) 3.41(30) 6.12(54) -.75(25) 0 0
S4 S2- 3.89(43) 2.07(26) 19.0(16) -.28(26) 0 0
#End of TTdata_15464-ICSD