
#(C) 2017 by FIZ Karlsruhe - Leibniz Institute for Information Infrastructure.  All rights reserved.
data_154802-ICSD
_database_code_ICSD 154802
_audit_creation_date 2007-04-01
_chemical_name_systematic 'Tribarium trinitridochromate(III)'
_chemical_formula_structural 'Ba3 (Cr N3)'
_chemical_formula_sum 'Ba3 Cr1 N3'
_chemical_name_structure_type Ba3FeN3
_exptl_crystal_density_diffrn 5.25
_cell_measurement_temperature 298.
_publ_section_title

;
Synthesis and crystal structures of the new ternary nitrides Sr3 Cr N3 and Ba3
Cr N3
;
loop_
_citation_id
_citation_journal_full
_citation_year
_citation_journal_volume
_citation_page_first
_citation_page_last
_citation_journal_id_ASTM
primary

;
Journal of the Chemical Society. Dalton Transactions, Inorganic Chemistry
(1972-)
; 1996 1996 1 5 JCDTBI
loop_
_publ_author_name
'Barker, M.G.'
'Begley, M.J.'
'Edwards, P.P.'
'Gregory, D.H.'
'Smith, S.E.'
_cell_length_a 8.201(2)
_cell_length_b 8.201(2)
_cell_length_c 5.497(1)
_cell_angle_alpha 90.
_cell_angle_beta 90.
_cell_angle_gamma 120.
_cell_volume 320.18
_cell_formula_units_Z 2
_symmetry_space_group_name_H-M 'P 63/m'
_symmetry_Int_Tables_number 176
_refine_ls_R_factor_all 0.0347
loop_
_symmetry_equiv_pos_site_id
_symmetry_equiv_pos_as_xyz
1 '-x+y, -x, -z+1/2'
2 '-y, x-y, -z+1/2'
3 'x, y, -z+1/2'
4 'x-y, x, -z'
5 'y, -x+y, -z'
6 '-x, -y, -z'
7 'x-y, x, z+1/2'
8 'y, -x+y, z+1/2'
9 '-x, -y, z+1/2'
10 '-x+y, -x, z'
11 '-y, x-y, z'
12 'x, y, z'
loop_
_atom_type_symbol
_atom_type_oxidation_number
Ba2+ 2
Cr3+ 3
N3- -3
loop_
_atom_site_label
_atom_site_type_symbol
_atom_site_symmetry_multiplicity
_atom_site_Wyckoff_symbol
_atom_site_fract_x
_atom_site_fract_y
_atom_site_fract_z
_atom_site_B_iso_or_equiv
_atom_site_occupancy
_atom_site_attached_hydrogens
Ba1 Ba2+ 6 h 0.35891(8) 0.27389(7) 0.25 0.0242 1. 0
Cr1 Cr3+ 2 c 0.6667 0.3333 0.75 0.0192 1. 0
N1 N3- 6 h 0.448(1) 0.317(1) 0.75 0.0289 1. 0
loop_
_atom_site_aniso_label
_atom_site_aniso_type_symbol
_atom_site_aniso_U_11
_atom_site_aniso_U_22
_atom_site_aniso_U_33
_atom_site_aniso_U_12
_atom_site_aniso_U_13
_atom_site_aniso_U_23
Ba1 Ba2+ 0.0250(3) 0.0251(3) 0.0245(4) 0.0140(2) 0. 0.
Cr1 Cr3+ 0.0186(6) 0.0186(6) 0.021(1) 0.0093(3) 0. 0.
N1 N3- 0.031(4) 0.037(4) 0.027(4) 0.022(4) 0. 0.
#End of TTdata_154802-ICSD