
#(C) 2017 by FIZ Karlsruhe - Leibniz Institute for Information Infrastructure.  All rights reserved.
data_155511-ICSD
_database_code_ICSD 155511
_audit_creation_date 2007-08-01
_chemical_name_systematic 'Barium tungstate - LP, scheelite-type'
_chemical_formula_structural 'Ba (W O4)'
_chemical_formula_sum 'Ba1 O4 W1'
_chemical_name_structure_type Scheelite-CaWO4
_exptl_crystal_density_diffrn 6.42
_cell_measurement_pressure 1000000.
_publ_section_title
'Determination of the high-presure crystal structure of Ba W O4 and Pb W O4'
loop_
_citation_id
_citation_journal_full
_citation_year
_citation_journal_volume
_citation_page_first
_citation_page_last
_citation_journal_id_ASTM
primary 'Physical Review, Serie 3. B - Condensed Matter (18,1978-)' 2006 73
224103-1 224103-15 PRBMDO
loop_
_publ_author_name
'Errandonea, D.'
'Pellicer-Porres, J.'
'Manjon, F.J.'
'Segura, A.'
'Ferrer-Roca, C.'
'Kumar, R.S.'
'Tschauner, O.'
'Lopez Solano, J.'
'Rodriguez Hernandez, P.'
'Radescu, S.'
'Mujica, A.'
'Munoz, A.'
'Aquilanti, G.'
_cell_length_a 5.603(4)
_cell_length_b 5.603(4)
_cell_length_c 12.693(7)
_cell_angle_alpha 90.
_cell_angle_beta 90.
_cell_angle_gamma 90.
_cell_volume 398.48
_cell_formula_units_Z 4
_symmetry_space_group_name_H-M 'I 41/a Z'
_symmetry_Int_Tables_number 88
loop_
_symmetry_equiv_pos_site_id
_symmetry_equiv_pos_as_xyz
1 '-y+3/4, x+3/4, -z+3/4'
2 'y+1/4, -x+3/4, -z+3/4'
3 'x, y+1/2, -z'
4 '-x, -y, -z'
5 'y+1/4, -x+1/4, z+1/4'
6 '-y+3/4, x+1/4, z+1/4'
7 '-x, -y+1/2, z'
8 'x, y, z'
9 '-y+1/4, x+1/4, -z+1/4'
10 'y+3/4, -x+1/4, -z+1/4'
11 'x+1/2, y, -z+1/2'
12 '-x+1/2, -y+1/2, -z+1/2'
13 'y+3/4, -x+3/4, z+3/4'
14 '-y+1/4, x+3/4, z+3/4'
15 '-x+1/2, -y, z+1/2'
16 'x+1/2, y+1/2, z+1/2'
loop_
_atom_type_symbol
_atom_type_oxidation_number
Ba2+ 2
W6+ 6
O2- -2
loop_
_atom_site_label
_atom_site_type_symbol
_atom_site_symmetry_multiplicity
_atom_site_Wyckoff_symbol
_atom_site_fract_x
_atom_site_fract_y
_atom_site_fract_z
_atom_site_B_iso_or_equiv
_atom_site_occupancy
_atom_site_attached_hydrogens
Ba1 Ba2+ 4 b 0 0.25 0.625 . 1. 0
W1 W6+ 4 a 0 0.25 0.125 . 1. 0
O1 O2- 16 f 0.2336(4) 0.0976(6) 0.0499(6) . 1. 0
#End of TTdata_155511-ICSD