
#(C) 2017 by FIZ Karlsruhe - Leibniz Institute for Information Infrastructure.  All rights reserved.
data_15582-ICSD
_database_code_ICSD 15582
_audit_creation_date 1981-12-31
_chemical_name_systematic 'Gallium tellurium chloride (1/1/1)'
_chemical_formula_structural 'Ga Te Cl'
_chemical_formula_sum 'Cl1 Ga1 Te1'
_exptl_crystal_density_diffrn 4.47
_publ_section_title

;
Ga Te Cl - a tetrahedral layer structure with Ga-Te linking of the black
phosphorus type
;
loop_
_citation_id
_citation_journal_full
_citation_year
_citation_journal_volume
_citation_page_first
_citation_page_last
_citation_journal_id_ASTM
primary

;
Zeitschrift fuer Naturforschung, Teil B. Anorganische Chemie, Organische
Chemie (33,1978-41,1986)
; 1981 36 1658 1659 ZNBAD2
loop_
_publ_author_name
'Wilms, A.'
'Kniep, R.'
_cell_length_a 5.852(2)
_cell_length_b 14.466(9)
_cell_length_c 4.082(1)
_cell_angle_alpha 90.
_cell_angle_beta 90.
_cell_angle_gamma 90.
_cell_volume 345.56
_cell_formula_units_Z 4
_symmetry_space_group_name_H-M 'P n n m'
_symmetry_Int_Tables_number 58
_refine_ls_R_factor_all 0.082
loop_
_symmetry_equiv_pos_site_id
_symmetry_equiv_pos_as_xyz
1 'x+1/2, -y+1/2, z+1/2'
2 '-x+1/2, y+1/2, z+1/2'
3 'x, y, -z'
4 '-x, -y, -z'
5 '-x+1/2, y+1/2, -z+1/2'
6 'x+1/2, -y+1/2, -z+1/2'
7 '-x, -y, z'
8 'x, y, z'
loop_
_atom_type_symbol
_atom_type_oxidation_number
Ga0+ 0
Te0+ 0
Cl0+ 0
loop_
_atom_site_label
_atom_site_type_symbol
_atom_site_symmetry_multiplicity
_atom_site_Wyckoff_symbol
_atom_site_fract_x
_atom_site_fract_y
_atom_site_fract_z
_atom_site_B_iso_or_equiv
_atom_site_occupancy
_atom_site_attached_hydrogens
Ga1 Ga0+ 4 g 0.0208(2) 0.3135(1) 0 . 1. 0
Te1 Te0+ 4 g 0.2450(1) 0.1563(1) 0 . 1. 0
Cl1 Cl0+ 4 g 0.2636(5) 0.4280(3) 0 . 1. 0
loop_
_atom_site_aniso_label
_atom_site_aniso_type_symbol
_atom_site_aniso_B_11
_atom_site_aniso_B_22
_atom_site_aniso_B_33
_atom_site_aniso_B_12
_atom_site_aniso_B_13
_atom_site_aniso_B_23
Ga1 Ga0+ 0.92(4) 1.05(5) 1.03(4) -.04(3) 0 0
Te1 Te0+ 0.96(4) 0.87(4) 0.90(4) -.04(1) 0 0
Cl1 Cl0+ 1.46(10) 1.43(11) 3.13(15) -.48(7) 0 0
#End of TTdata_15582-ICSD