
data_156267-ICSD
_database_code_ICSD 156267
_audit_creation_date 2007-08-01
_chemical_name_systematic 'Hafnium platinum aluminium (1/1/1)'
_chemical_formula_structural 'Hf Pt Al'
_chemical_formula_sum 'Al1 Hf1 Pt1'
_chemical_name_structure_type Mg2Ga
_exptl_crystal_density_diffrn 12.88
_cell_length_a 7.0912(1)
_cell_length_b 7.0912(1)
_cell_length_c 7.1127(2)
_cell_angle_alpha 90.
_cell_angle_beta 90.
_cell_angle_gamma 120.
_cell_volume 309.75
_cell_formula_units_Z 6
_symmetry_space_group_name_H-M 'P -6 2 c'
_symmetry_Int_Tables_number 190
_refine_ls_R_factor_all 0.042
loop_
_symmetry_equiv_pos_site_id
_symmetry_equiv_pos_as_xyz
1 '-x, -x+y, -z'
2 'x-y, -y, -z'
3 'y, x, -z'
4 '-x, -x+y, z+1/2'
5 'x-y, -y, z+1/2'
6 'y, x, z+1/2'
7 '-x+y, -x, -z+1/2'
8 '-y, x-y, -z+1/2'
9 'x, y, -z+1/2'
10 '-x+y, -x, z'
11 '-y, x-y, z'
12 'x, y, z'
loop_
_atom_type_symbol
_atom_type_oxidation_number
Hf0+ 0
Pt0+ 0
Al0+ 0
loop_
_atom_site_label
_atom_site_type_symbol
_atom_site_symmetry_multiplicity
_atom_site_Wyckoff_symbol
_atom_site_fract_x
_atom_site_fract_y
_atom_site_fract_z
_atom_site_B_iso_or_equiv
_atom_site_occupancy
_atom_site_attached_hydrogens
Hf1 Hf0+ 6 h 0.4119(3) 0.3902(3) 0.25 0.53(3) 1. 0
Pt2 Pt0+ 4 f 0.3333 0.6667 0.0282(3) 0.66(4) 1. 0
Pt1 Pt0+ 2 b 0 0 0.25 1.10(6) 1. 0
Al1 Al0+ 6 g 0.2538(15) 0 0 1.2(2) 1. 0
