
#(C) 2017 by FIZ Karlsruhe - Leibniz Institute for Information Infrastructure.  All rights reserved.
data_15639-ICSD
_database_code_ICSD 15639
_audit_creation_date 1980-01-01
_audit_update_record 2014-08-01
_chemical_name_systematic 'Strontium silicide (5/3)'
_chemical_formula_structural 'Sr5 Si3'
_chemical_formula_sum 'Si3 Sr5'
_chemical_name_structure_type Sr5Si3
_exptl_crystal_density_diffrn 3.41
_publ_section_title 'Die Kristallstruktur der Phase Sr5 Si3'
loop_
_citation_id
_citation_journal_full
_citation_year
_citation_journal_volume
_citation_page_first
_citation_page_last
_citation_journal_id_ASTM
primary

;
Zeitschrift fuer Naturforschung, Teil B. Anorganische Chemie, Organische
Chemie (2,1947-32,1977)
; 1967 22 101 102 ZENBAX
loop_
_publ_author_name
'Nagorsen, G.'
'Rocktaeschel, G.'
'Schaefer, H.'
'Weiss, A.'
_cell_length_a 8.055
_cell_length_b 8.055
_cell_length_c 15.688
_cell_angle_alpha 90.
_cell_angle_beta 90.
_cell_angle_gamma 90.
_cell_volume 1017.88
_cell_formula_units_Z 4
_symmetry_space_group_name_H-M 'I 4 c m'
_symmetry_Int_Tables_number 108
loop_
_symmetry_equiv_pos_site_id
_symmetry_equiv_pos_as_xyz
1 'y+1/2, x+1/2, z'
2 '-y+1/2, -x+1/2, z'
3 'y, -x, z'
4 '-y, x, z'
5 'x+1/2, -y+1/2, z'
6 '-x+1/2, y+1/2, z'
7 '-x, -y, z'
8 'x, y, z'
9 'y, x, z+1/2'
10 '-y, -x, z+1/2'
11 'y+1/2, -x+1/2, z+1/2'
12 '-y+1/2, x+1/2, z+1/2'
13 'x, -y, z+1/2'
14 '-x, y, z+1/2'
15 '-x+1/2, -y+1/2, z+1/2'
16 'x+1/2, y+1/2, z+1/2'
loop_
_atom_type_symbol
_atom_type_oxidation_number
Sr0+ 0
Si0+ 0
loop_
_atom_site_label
_atom_site_type_symbol
_atom_site_symmetry_multiplicity
_atom_site_Wyckoff_symbol
_atom_site_fract_x
_atom_site_fract_y
_atom_site_fract_z
_atom_site_B_iso_or_equiv
_atom_site_occupancy
_atom_site_attached_hydrogens
Sr1 Sr0+ 8 c 0.176 0.676 0.143 . 1. 0
Sr2 Sr0+ 8 c 0.176 0.676 -.143 . 1. 0
Sr3 Sr0+ 4 a 0 0 0.007 . 1. 0
Si1 Si0+ 8 c 0.391 0.891 0 . 1. 0
Si2 Si0+ 4 a 0 0 0.25 . 1. 0
#End of TTdata_15639-ICSD