
#(C) 2017 by FIZ Karlsruhe - Leibniz Institute for Information Infrastructure.  All rights reserved.
data_156887-ICSD
_database_code_ICSD 156887
_audit_creation_date 2008-02-01
_chemical_name_systematic 'Calcium iridium (5/1)'
_chemical_formula_structural 'Ca5 Ir'
_chemical_formula_sum 'Ca5 Ir1'
_exptl_crystal_density_diffrn 3.16
_publ_section_title
'Ca5 Rh and Ca5 Ir: isotypic compounds with a new structure type'
loop_
_citation_id
_citation_journal_full
_citation_year
_citation_journal_volume
_citation_page_first
_citation_page_last
_citation_journal_id_ASTM
primary 'Journal of Alloys and Compounds' 2007 436 91 94 JALCEU
loop_
_publ_author_name
'Pani, M.'
'Palenzona, A.'
_cell_length_a 7.656(1)
_cell_length_b 15.917(3)
_cell_length_c 6.793(1)
_cell_angle_alpha 90.
_cell_angle_beta 90.
_cell_angle_gamma 90.
_cell_volume 827.8
_cell_formula_units_Z 4
_symmetry_space_group_name_H-M 'P n m a'
_symmetry_Int_Tables_number 62
_refine_ls_R_factor_all 0.031
loop_
_symmetry_equiv_pos_site_id
_symmetry_equiv_pos_as_xyz
1 'x+1/2, y, -z+1/2'
2 'x, -y+1/2, z'
3 '-x+1/2, y+1/2, z+1/2'
4 '-x, -y, -z'
5 '-x+1/2, -y, z+1/2'
6 '-x, y+1/2, -z'
7 'x+1/2, -y+1/2, -z+1/2'
8 'x, y, z'
loop_
_atom_type_symbol
_atom_type_oxidation_number
Ca0+ 0
Ir0+ 0
loop_
_atom_site_label
_atom_site_type_symbol
_atom_site_symmetry_multiplicity
_atom_site_Wyckoff_symbol
_atom_site_fract_x
_atom_site_fract_y
_atom_site_fract_z
_atom_site_B_iso_or_equiv
_atom_site_occupancy
_atom_site_attached_hydrogens
Ca1 Ca0+ 8 d 0.0342(1) 0.64504(6) 0.3230(1) 0.0179(2) 1. 0
Ca2 Ca0+ 8 d 0.3080(1) 0.06566(6) 0.3561(2) 0.0202(2) 1. 0
Ca3 Ca0+ 4 c 0.0940(2) 0.25 0.1540(2) 0.0185(3) 1. 0
Ir1 Ir0+ 4 c 0.26096(3) 0.25 0.53671(4) 0.0164(1) 1. 0
loop_
_atom_site_aniso_label
_atom_site_aniso_type_symbol
_atom_site_aniso_U_11
_atom_site_aniso_U_22
_atom_site_aniso_U_33
_atom_site_aniso_U_12
_atom_site_aniso_U_13
_atom_site_aniso_U_23
Ca1 Ca0+ 0.0189(4) 0.0186(4) 0.0162(4) 0.0006(3) 0.0038(3) 0.0001(3)
Ca2 Ca0+ 0.0206(4) 0.0217(4) 0.0184(4) 0.0001(4) -0.0003(3) -0.0013(4)
Ca3 Ca0+ 0.0163(5) 0.0200(6) 0.0190(6) 0. -0.0053(5) 0.
Ir1 Ir0+ 0.0134(1) 0.0205(1) 0.0154(1) 0. -0.0007(1) 0.
#End of TTdata_156887-ICSD