
#(C) 2017 by FIZ Karlsruhe - Leibniz Institute for Information Infrastructure.  All rights reserved.
data_15694-ICSD
_database_code_ICSD 15694
_audit_creation_date 1980-01-01
_audit_update_record 1999-11-30
_chemical_name_systematic 'Lead lithium (3/8)'
_chemical_formula_structural 'Li8 Pb3'
_chemical_formula_sum 'Li8 Pb3'
_exptl_crystal_density_diffrn 5.37
_publ_section_title

;
Intermetallic compounds between lithium and lead. II. The crystal structure of
Li8 Pb3
;
loop_
_citation_id
_citation_journal_full
_citation_year
_citation_journal_volume
_citation_page_first
_citation_page_last
_citation_journal_id_ASTM
primary 'Journal of Physical Chemistry' 1956 60 1275 1277 JPCHAX
loop_
_publ_author_name
'Zalkin, A.'
'Ramsey, W.J.'
'Templeton, D.H.'
_cell_length_a 8.24
_cell_length_b 4.757
_cell_length_c 11.03
_cell_angle_alpha 90.
_cell_angle_beta 104.417
_cell_angle_gamma 90.
_cell_volume 418.74
_cell_formula_units_Z 2
_symmetry_space_group_name_H-M 'C 1 2/m 1'
_symmetry_Int_Tables_number 12
loop_
_symmetry_equiv_pos_site_id
_symmetry_equiv_pos_as_xyz
1 '-x, y, -z'
2 '-x, -y, -z'
3 'x, -y, z'
4 'x, y, z'
5 '-x+1/2, y+1/2, -z'
6 '-x+1/2, -y+1/2, -z'
7 'x+1/2, -y+1/2, z'
8 'x+1/2, y+1/2, z'
loop_
_atom_type_symbol
_atom_type_oxidation_number
Pb0+ 0
Li0+ 0
loop_
_atom_site_label
_atom_site_type_symbol
_atom_site_symmetry_multiplicity
_atom_site_Wyckoff_symbol
_atom_site_fract_x
_atom_site_fract_y
_atom_site_fract_z
_atom_site_B_iso_or_equiv
_atom_site_occupancy
_atom_site_attached_hydrogens
Pb1 Pb0+ 2 a 0 0 0 . 1. 0
Pb2 Pb0+ 4 i 0.4545 0 0.3636 . 1. 0
Li1 Li0+ 4 i 0.3636 0 0.0909 . 1. 0
Li2 Li0+ 4 i 0.2727 0 0.8182 . 1. 0
Li3 Li0+ 4 i 0.1818 0 0.5455 . 1. 0
Li4 Li0+ 4 i 0.0909 0 0.2727 . 1. 0
#End of TTdata_15694-ICSD