
#(C) 2017 by FIZ Karlsruhe - Leibniz Institute for Information Infrastructure.  All rights reserved.
data_15734-ICSD
_database_code_ICSD 15734
_audit_creation_date 1980-01-01
_audit_update_record 2007-08-01
_chemical_name_systematic 'Trisilver gold selenide - beta'
_chemical_formula_structural 'Ag3 Au Se2'
_chemical_formula_sum 'Ag3 Au1 Se2'
_chemical_name_structure_type Ag3AuTe2
_chemical_name_mineral Fischesserite
_exptl_crystal_density_diffrn 9.15
_publ_section_title

;
Structure cristalline des tellurure et seleniure mixtes d'argent et d'or:
beta-Ag3 Au Te2 - beta-Ag3 Au Se2
;
loop_
_citation_id
_citation_journal_full
_citation_year
_citation_journal_volume
_citation_page_first
_citation_page_last
_citation_journal_id_ASTM
primary 'Bulletin de la Societe Royal des Sciences de Liege' 1966 35 234 243
BSRSA6
loop_
_publ_author_name
'Messien, P.'
'Baiwir, M.'
_cell_length_a 9.95
_cell_length_b 9.95
_cell_length_c 9.95
_cell_angle_alpha 90.
_cell_angle_beta 90.
_cell_angle_gamma 90.
_cell_volume 985.07
_cell_formula_units_Z 8
_symmetry_space_group_name_H-M 'I 41 3 2'
_symmetry_Int_Tables_number 214
_refine_ls_R_factor_all 0.115
loop_
_symmetry_equiv_pos_site_id
_symmetry_equiv_pos_as_xyz
1 'y+1/4, x+3/4, -z+3/4'
2 '-y+3/4, x+1/4, z+3/4'
3 'y+3/4, -x+3/4, z+1/4'
4 '-y+1/4, -x+1/4, -z+1/4'
5 'z+1/2, -x+1/2, -y'
6 '-z+1/2, -x, y+1/2'
7 '-z, x+1/2, -y+1/2'
8 'z, x, y'
9 '-z+3/4, y+1/4, x+3/4'
10 'z+3/4, -y+3/4, x+1/4'
11 'z+1/4, y+3/4, -x+3/4'
12 '-z+1/4, -y+1/4, -x+1/4'
13 '-y, z+1/2, -x+1/2'
14 'y+1/2, -z+1/2, -x'
15 '-y+1/2, -z, x+1/2'
16 'y, z, x'
17 'x+3/4, -z+3/4, y+1/4'
18 'x+1/4, z+3/4, -y+3/4'
19 '-x+3/4, z+1/4, y+3/4'
20 '-x+1/4, -z+1/4, -y+1/4'
21 '-x+1/2, -y, z+1/2'
22 '-x, y+1/2, -z+1/2'
23 'x+1/2, -y+1/2, -z'
24 'x, y, z'
25 'y+3/4, x+1/4, -z+1/4'
26 '-y+1/4, x+3/4, z+1/4'
27 'y+1/4, -x+1/4, z+3/4'
28 '-y+3/4, -x+3/4, -z+3/4'
29 'z, -x, -y+1/2'
30 '-z, -x+1/2, y'
31 '-z+1/2, x, -y'
32 'z+1/2, x+1/2, y+1/2'
33 '-z+1/4, y+3/4, x+1/4'
34 'z+1/4, -y+1/4, x+3/4'
35 'z+3/4, y+1/4, -x+1/4'
36 '-z+3/4, -y+3/4, -x+3/4'
37 '-y+1/2, z, -x'
38 'y, -z, -x+1/2'
39 '-y, -z+1/2, x'
40 'y+1/2, z+1/2, x+1/2'
41 'x+1/4, -z+1/4, y+3/4'
42 'x+3/4, z+1/4, -y+1/4'
43 '-x+1/4, z+3/4, y+1/4'
44 '-x+3/4, -z+3/4, -y+3/4'
45 '-x, -y+1/2, z'
46 '-x+1/2, y, -z'
47 'x, -y, -z+1/2'
48 'x+1/2, y+1/2, z+1/2'
loop_
_atom_type_symbol
_atom_type_oxidation_number
Ag1+ 1
Au1+ 1
Se2- -2
loop_
_atom_site_label
_atom_site_type_symbol
_atom_site_symmetry_multiplicity
_atom_site_Wyckoff_symbol
_atom_site_fract_x
_atom_site_fract_y
_atom_site_fract_z
_atom_site_B_iso_or_equiv
_atom_site_occupancy
_atom_site_attached_hydrogens
Ag1 Ag1+ 24 f 0.366 0 0.25 . 1. 0
Au1 Au1+ 8 a 0.125 0.125 0.125 . 1. 0
Se1 Se2- 16 e 0.274 0.274 0.274 . 1. 0
#End of TTdata_15734-ICSD