
#(C) 2017 by FIZ Karlsruhe - Leibniz Institute for Information Infrastructure.  All rights reserved.
data_158313-ICSD
_database_code_ICSD 158313
_audit_creation_date 2008-02-01
_chemical_name_systematic 'Gallium niobium sulfide (1/4/8)'
_chemical_formula_structural 'Ga Nb4 S8'
_chemical_formula_sum 'Ga1 Nb4 S8'
_exptl_crystal_density_diffrn 4.65
_cell_measurement_temperature 20.
_publ_section_title
'Structural and magnetic transitions in the Mott insulator Ga Nb4 S8'
loop_
_citation_id
_citation_journal_full
_citation_year
_citation_journal_volume
_citation_page_first
_citation_page_last
_citation_journal_id_ASTM
primary 'Journal of Materials Chemistry' 2007 17 3833 3838 JMACEP
loop_
_publ_author_name
'Jakob, S.'
'Mueller, H.'
'Johrendt, D.'
'Altmannshofer, S.'
'Scherer, W.'
'Rayaprol, S.'
'Poettgen, R.'
_cell_length_a 9.992(1)
_cell_length_b 9.992(1)
_cell_length_c 9.978(2)
_cell_angle_alpha 90.
_cell_angle_beta 90.
_cell_angle_gamma 90.
_cell_volume 996.2
_cell_formula_units_Z 4
_symmetry_space_group_name_H-M 'P -4 21 m'
_symmetry_Int_Tables_number 113
_refine_ls_R_factor_all 0.027
loop_
_symmetry_equiv_pos_site_id
_symmetry_equiv_pos_as_xyz
1 '-y+1/2, -x+1/2, z'
2 'y, -x, -z'
3 'y+1/2, x+1/2, z'
4 '-y, x, -z'
5 'x+1/2, -y+1/2, -z'
6 '-x, -y, z'
7 '-x+1/2, y+1/2, -z'
8 'x, y, z'
loop_
_atom_type_symbol
_atom_type_oxidation_number
Ga3+ 3
Nb3+ 3.25
S2- -2
loop_
_atom_site_label
_atom_site_type_symbol
_atom_site_symmetry_multiplicity
_atom_site_Wyckoff_symbol
_atom_site_fract_x
_atom_site_fract_y
_atom_site_fract_z
_atom_site_B_iso_or_equiv
_atom_site_occupancy
_atom_site_attached_hydrogens
Ga1 Ga3+ 4 e 0.75120(4) 0.74880(4) 0.24980(1) 0.033(1) 1. 0
Nb1 Nb3+ 8 f 0.85775(6) 0.85268(6) 0.6457(1) 0.037(2) 1. 0
Nb2 Nb3+ 4 e 0.85508(6) 0.64492(6) 0.8501(1) 0.031(2) 1. 0
Nb3 Nb3+ 4 e 0.64271(7) 0.85729(7) 0.8601(1) 0.040(2) 1. 0
S1 S2- 4 e 0.8856(2) 0.6144(2) 0.6122(2) 0.044(2) 1. 0
S2 S2- 4 e 0.6181(2) 0.8819(2) 0.6217(2) 0.044(2) 1. 0
S3 S2- 8 f 0.8821(2) 0.8846(2) 0.8823(3) 0.044(2) 1. 0
S4 S2- 8 f 0.8839(2) 0.8822(2) 0.3819(3) 0.039(2) 1. 0
S5 S2- 4 e 0.8829(2) 0.6171(2) 0.1137(3) 0.039(2) 1. 0
S6 S2- 4 e 0.6163(2) 0.8837(2) 0.1202(3) 0.039(2) 1. 0
#End of TTdata_158313-ICSD