
#(C) 2017 by FIZ Karlsruhe - Leibniz Institute for Information Infrastructure.  All rights reserved.
data_15851-ICSD
_database_code_ICSD 15851
_audit_creation_date 1980-01-01
_audit_update_record 2003-04-01
_chemical_name_systematic 'Cobalt tungstate'
_chemical_formula_structural 'Co (W O4)'
_chemical_formula_sum 'Co1 O4 W1'
_chemical_name_structure_type Wolframite-NiWO4
_chemical_name_mineral Krasnoselskite
_exptl_crystal_density_diffrn 7.75
_publ_section_title
'Kristallstrukturverfeinerung von Wolframiten und Columbiten'
loop_
_citation_id
_citation_journal_full
_citation_year
_citation_journal_volume
_citation_page_first
_citation_page_last
_citation_journal_id_ASTM
primary

;
Zeitschrift fuer Kristallographie, Kristallgeometrie, Kristallphysik,
Kristallchemie (-144,1977)
; 1976 144 238 258 ZEKGAX
loop_
_publ_author_name
'Weitzel, H.'
_cell_length_a 4.6698(9)
_cell_length_b 5.6873(23)
_cell_length_c 4.9515(17)
_cell_angle_alpha 90.
_cell_angle_beta 90.(0)
_cell_angle_gamma 90.
_cell_volume 131.5
_cell_formula_units_Z 2
_symmetry_space_group_name_H-M 'P 1 2/c 1'
_symmetry_Int_Tables_number 13
_refine_ls_R_factor_all 0.03
loop_
_symmetry_equiv_pos_site_id
_symmetry_equiv_pos_as_xyz
1 'x, -y, z+1/2'
2 '-x, -y, -z'
3 '-x, y, -z+1/2'
4 'x, y, z'
loop_
_atom_type_symbol
_atom_type_oxidation_number
Co2+ 2
W6+ 6
O2- -2
loop_
_atom_site_label
_atom_site_type_symbol
_atom_site_symmetry_multiplicity
_atom_site_Wyckoff_symbol
_atom_site_fract_x
_atom_site_fract_y
_atom_site_fract_z
_atom_site_B_iso_or_equiv
_atom_site_occupancy
_atom_site_attached_hydrogens
Co1 Co2+ 2 f 0.5 0.6712(8) 0.25 0.41 1. 0
W1 W6+ 2 e 0 0.1773(4) 0.25 0.6 1. 0
O1 O2- 4 g 0.2176(3) 0.1080(4) 0.9321(3) 0.5 1. 0
O2 O2- 4 g 0.2540(3) 0.3757(4) 0.3939(3) 0.7 1. 0
#End of TTdata_15851-ICSD