
#(C) 2017 by FIZ Karlsruhe - Leibniz Institute for Information Infrastructure.  All rights reserved.
data_15889-ICSD
_database_code_ICSD 15889
_audit_creation_date 1986-09-25
_audit_update_record 2013-02-01
_chemical_name_systematic 'Vanadium(IV) oxide'
_chemical_formula_structural 'V O2'
_chemical_formula_sum 'O2 V1'
_chemical_name_structure_type MoO2
_exptl_crystal_density_diffrn 4.69
_publ_section_title 'Studies on vanadium oxides'
loop_
_citation_id
_citation_journal_full
_citation_year
_citation_journal_volume
_citation_page_first
_citation_page_last
_citation_journal_id_ASTM
primary 'Acta Chemica Scandinavica (1-27,1973-42,1988)' 1956 10 623 628 ACSAA4
loop_
_publ_author_name
'Andersson, G.'
_cell_length_a 5.743
_cell_length_b 4.517
_cell_length_c 5.375
_cell_angle_alpha 90.
_cell_angle_beta 122.61
_cell_angle_gamma 90.
_cell_volume 117.45
_cell_formula_units_Z 4
_symmetry_space_group_name_H-M 'P 1 21/c 1'
_symmetry_Int_Tables_number 14
_refine_ls_R_factor_all 0.1
loop_
_symmetry_equiv_pos_site_id
_symmetry_equiv_pos_as_xyz
1 'x, -y+1/2, z+1/2'
2 '-x, -y, -z'
3 '-x, y+1/2, -z+1/2'
4 'x, y, z'
loop_
_atom_type_symbol
_atom_type_oxidation_number
V4+ 4
O2- -2
loop_
_atom_site_label
_atom_site_type_symbol
_atom_site_symmetry_multiplicity
_atom_site_Wyckoff_symbol
_atom_site_fract_x
_atom_site_fract_y
_atom_site_fract_z
_atom_site_B_iso_or_equiv
_atom_site_occupancy
_atom_site_attached_hydrogens
V1 V4+ 4 e 0.242 0.975 0.025 . 1. 0
O1 O2- 4 e 0.1 0.21 0.2 . 1. 0
O2 O2- 4 e 0.39 0.69 0.29 . 1. 0
#End of TTdata_15889-ICSD