
#(C) 2017 by FIZ Karlsruhe - Leibniz Institute for Information Infrastructure.  All rights reserved.
data_159248-ICSD
_database_code_ICSD 159248
_audit_creation_date 2008-08-01
_chemical_name_systematic 'Copper titanium antimonide (1/5/2)'
_chemical_formula_structural 'Cu Sb2 Ti5'
_chemical_formula_sum 'Cu1 Sb2 Ti5'
_chemical_name_structure_type Mo5Si3
_exptl_crystal_density_diffrn 6.3
_cell_measurement_temperature 298.
_publ_section_title
'Thermal expansion behavior and crystal structure of Cu Sb2 Ti5'
loop_
_citation_id
_citation_journal_full
_citation_year
_citation_journal_volume
_citation_page_first
_citation_page_last
_citation_journal_id_ASTM
primary 'Materials Letters' 2008 62 615 618 MLETDJ
loop_
_publ_author_name
'Wei Xiangzhong'
'Liu Hongrui'
'He Wei'
'Zeng Ling Min'
_cell_length_a 10.4804(2)
_cell_length_b 10.4804(2)
_cell_length_c 5.2424(2)
_cell_angle_alpha 90.
_cell_angle_beta 90.
_cell_angle_gamma 90.
_cell_volume 575.82
_cell_formula_units_Z 4
_symmetry_space_group_name_H-M 'I 4/m c m'
_symmetry_Int_Tables_number 140
_refine_ls_R_factor_all 0.0612
loop_
_symmetry_equiv_pos_site_id
_symmetry_equiv_pos_as_xyz
1 'y, x, -z+1/2'
2 '-y, -x, -z+1/2'
3 '-y, x, -z'
4 'y, -x, -z'
5 'x, -y, -z+1/2'
6 '-x, y, -z+1/2'
7 'x, y, -z'
8 '-x, -y, -z'
9 '-y, -x, z+1/2'
10 'y, x, z+1/2'
11 'y, -x, z'
12 '-y, x, z'
13 '-x, y, z+1/2'
14 'x, -y, z+1/2'
15 '-x, -y, z'
16 'x, y, z'
17 'y+1/2, x+1/2, -z'
18 '-y+1/2, -x+1/2, -z'
19 '-y+1/2, x+1/2, -z+1/2'
20 'y+1/2, -x+1/2, -z+1/2'
21 'x+1/2, -y+1/2, -z'
22 '-x+1/2, y+1/2, -z'
23 'x+1/2, y+1/2, -z+1/2'
24 '-x+1/2, -y+1/2, -z+1/2'
25 '-y+1/2, -x+1/2, z'
26 'y+1/2, x+1/2, z'
27 'y+1/2, -x+1/2, z+1/2'
28 '-y+1/2, x+1/2, z+1/2'
29 '-x+1/2, y+1/2, z'
30 'x+1/2, -y+1/2, z'
31 '-x+1/2, -y+1/2, z+1/2'
32 'x+1/2, y+1/2, z+1/2'
loop_
_atom_type_symbol
_atom_type_oxidation_number
Cu0+ 0
Ti0+ 0
Sb0+ 0
Ti0+ 0
loop_
_atom_site_label
_atom_site_type_symbol
_atom_site_symmetry_multiplicity
_atom_site_Wyckoff_symbol
_atom_site_fract_x
_atom_site_fract_y
_atom_site_fract_z
_atom_site_B_iso_or_equiv
_atom_site_occupancy
_atom_site_attached_hydrogens
Cu1 Cu0+ 4 a 0 0 0.25 0.1 1. 0
Ti1 Ti0+ 4 b 0 0.5 0.25 0.49 1. 0
Sb1 Sb0+ 8 h 0.1634(1) 0.6634(1) 0 0.35 1. 0
Ti2 Ti0+ 16 k 0.0774(3) 0.2224(3) 0 0.32 1. 0
#End of TTdata_159248-ICSD