
#(C) 2017 by FIZ Karlsruhe - Leibniz Institute for Information Infrastructure.  All rights reserved.
data_15987-ICSD
_database_code_ICSD 15987
_audit_creation_date 1980-01-01
_audit_update_record 2013-02-01
_chemical_name_systematic 'Iron arsenide sulfide (1/1/1)'
_chemical_formula_structural 'Fe As S'
_chemical_formula_sum 'As1 Fe1 S1'
_chemical_name_mineral Arsenopyrite
_exptl_crystal_density_diffrn 6.24
_publ_section_title
'The symmetry and crystal structure of the minerals of the arsenopyrite group'
loop_
_citation_id
_citation_journal_full
_citation_year
_citation_journal_volume
_citation_page_first
_citation_page_last
_citation_journal_id_ASTM
primary

;
Zeitschrift fuer Kristallographie, Kristallgeometrie, Kristallphysik,
Kristallchemie (-144,1977)
; 1936 95 83 113 ZEKGAX
loop_
_publ_author_name
'Buerger, M.J.'
_cell_length_a 9.53
_cell_length_b 5.66
_cell_length_c 6.43
_cell_angle_alpha 90.
_cell_angle_beta 90.
_cell_angle_gamma 90.
_cell_volume 346.83
_cell_formula_units_Z 8
_symmetry_space_group_name_H-M 'B -1'
_symmetry_Int_Tables_number 2
loop_
_symmetry_equiv_pos_site_id
_symmetry_equiv_pos_as_xyz
1 '-x, -y, -z'
2 'x, y, z'
3 '-x+1/2, -y, -z+1/2'
4 'x+1/2, y, z+1/2'
loop_
_atom_type_symbol
_atom_type_oxidation_number
Fe0+ 0
As0+ 0
S0+ 0
loop_
_atom_site_label
_atom_site_type_symbol
_atom_site_symmetry_multiplicity
_atom_site_Wyckoff_symbol
_atom_site_fract_x
_atom_site_fract_y
_atom_site_fract_z
_atom_site_B_iso_or_equiv
_atom_site_occupancy
_atom_site_attached_hydrogens
Fe1 Fe0+ 4 i 0 0 0.275 . 1. 0
Fe2 Fe0+ 4 i 0.25 0.5 -.025 . 1. 0
As1 As0+ 4 i 0.147 0.128 0 . 1. 0
As2 As0+ 4 i 0.103 0.628 0.25 . 1. 0
S1 S0+ 4 i 0.167 0.132 0.5 . 1. 0
S2 S0+ 4 i 0.083 0.632 -.25 . 1. 0
#End of TTdata_15987-ICSD