
data_159920-ICSD
_database_code_ICSD 159920
_audit_creation_date 2008-08-01
_chemical_name_systematic 'Iron germanide (1/1) - epsilon'
_chemical_formula_structural 'Fe Ge'
_chemical_formula_sum 'Fe1 Ge1'
_chemical_name_structure_type Fersilicite-FeSi
_exptl_crystal_density_diffrn 8.22
_cell_measurement_temperature 295.
_cell_length_a 4.6995(2)
_cell_length_b 4.6995(2)
_cell_length_c 4.6995(2)
_cell_angle_alpha 90.
_cell_angle_beta 90.
_cell_angle_gamma 90.
_cell_volume 103.79
_cell_formula_units_Z 4
_symmetry_space_group_name_H-M 'P 21 3'
_symmetry_Int_Tables_number 198
_refine_ls_R_factor_all 0.02
loop_
_symmetry_equiv_pos_site_id
_symmetry_equiv_pos_as_xyz
1 '-z+1/2, -x, y+1/2'
2 '-y+1/2, -z, x+1/2'
3 '-x+1/2, -y, z+1/2'
4 '-z, x+1/2, -y+1/2'
5 '-y, z+1/2, -x+1/2'
6 '-x, y+1/2, -z+1/2'
7 'z+1/2, -x+1/2, -y'
8 'y+1/2, -z+1/2, -x'
9 'x+1/2, -y+1/2, -z'
10 'z, x, y'
11 'y, z, x'
12 'x, y, z'
loop_
_atom_type_symbol
_atom_type_oxidation_number
Fe0+ 0
Ge0+ 0
loop_
_atom_site_label
_atom_site_type_symbol
_atom_site_symmetry_multiplicity
_atom_site_Wyckoff_symbol
_atom_site_fract_x
_atom_site_fract_y
_atom_site_fract_z
_atom_site_B_iso_or_equiv
_atom_site_occupancy
_atom_site_attached_hydrogens
Fe1 Fe0+ 4 a 0.13522(2) 0.13522(2) 0.13522(2) 0.0057(2) 1. 0
Ge1 Ge0+ 4 a 0.84186(1) 0.84186(1) 0.84186(1) 0.0055(2) 1. 0
loop_
_atom_site_aniso_label
_atom_site_aniso_type_symbol
_atom_site_aniso_U_11
_atom_site_aniso_U_22
_atom_site_aniso_U_33
_atom_site_aniso_U_12
_atom_site_aniso_U_13
_atom_site_aniso_U_23
Fe1 Fe0+ 0.0057(2) 0.0057(2) 0.0057(2) -0.0006(1) -0.0006(1) -0.0006(1)
Ge1 Ge0+ 0.0055(2) 0.0055(2) 0.0055(2) 0.0000(1) 0.0000(1) 0.0000(1)
