
#(C) 2017 by FIZ Karlsruhe - Leibniz Institute for Information Infrastructure.  All rights reserved.
data_160455-ICSD
_database_code_ICSD 160455
_audit_creation_date 2008-08-01
_chemical_name_systematic 'Bismuth chromate(III) - RT'
_chemical_formula_structural 'Bi (Cr O3)'
_chemical_formula_sum 'Bi1 Cr1 O3'
_chemical_name_structure_type Perovskite-BiMnO3
_exptl_crystal_density_diffrn 8.71
_cell_measurement_temperature 7.
_publ_section_title

;
Neutron powder diffraction study on the crystal and magnetic structures of Bi
Cr O3
;
loop_
_citation_id
_citation_journal_full
_citation_year
_citation_journal_volume
_citation_page_first
_citation_page_last
_citation_journal_id_ASTM
primary 'Chemistry of Materials' 2008 20 3765 3769 CMATEX
loop_
_publ_author_name
'Belik, A.A.'
'Iikubo, S.'
'Kodama, K.'
'Igawa, N.'
'Shamoto, S.'
'Takayama Muromachi, E.'
_cell_length_a 9.4641(4)
_cell_length_b 5.4790(2)
_cell_length_c 9.5850(4)
_cell_angle_alpha 90.
_cell_angle_beta 108.568(3)
_cell_angle_gamma 90.
_cell_volume 471.15
_cell_formula_units_Z 8
_symmetry_space_group_name_H-M 'C 1 2/c 1'
_symmetry_Int_Tables_number 15
_refine_ls_R_factor_all 0.0064
loop_
_symmetry_equiv_pos_site_id
_symmetry_equiv_pos_as_xyz
1 'x, -y, z+1/2'
2 '-x, -y, -z'
3 '-x, y, -z+1/2'
4 'x, y, z'
5 'x+1/2, -y+1/2, z+1/2'
6 '-x+1/2, -y+1/2, -z'
7 '-x+1/2, y+1/2, -z+1/2'
8 'x+1/2, y+1/2, z'
loop_
_atom_type_symbol
_atom_type_oxidation_number
Bi3+ 3
Cr3+ 3
O2- -2
loop_
_atom_site_label
_atom_site_type_symbol
_atom_site_symmetry_multiplicity
_atom_site_Wyckoff_symbol
_atom_site_fract_x
_atom_site_fract_y
_atom_site_fract_z
_atom_site_B_iso_or_equiv
_atom_site_occupancy
_atom_site_attached_hydrogens
Bi1 Bi3+ 8 f 0.13388(16) 0.2129(3) 0.13076(18) 0.18(4) 1. 0
Cr1 Cr3+ 4 e 0 0.2410(7) 0.75 0.46(4) 1. 0
Cr2 Cr3+ 4 d 0.25 0.25 0.5 0.49(11) 1. 0
O1 O2- 8 f 0.0874(3) 0.2017(5) 0.5878(3) 0.75(5) 1. 0
O2 O2- 8 f 0.1542(3) 0.5272(5) 0.3650(3) 0.47(5) 1. 0
O3 O2- 8 f 0.3571(3) 0.5213(5) 0.1581(3) 0.31(5) 1. 0
#End of TTdata_160455-ICSD