
#(C) 2017 by FIZ Karlsruhe - Leibniz Institute for Information Infrastructure.  All rights reserved.
data_160691-ICSD
_database_code_ICSD 160691
_audit_creation_date 2009-02-01
_chemical_name_systematic 'Lanthanum chromium silicide carbide (1/2/2/1)'
_chemical_formula_structural 'La Cr2 Si2 C'
_chemical_formula_sum 'C1 Cr2 La1 Si2'
_chemical_name_structure_type CeCr2Si2C
_exptl_crystal_density_diffrn 5.77
_publ_section_title
'Crystal structure and magnetism of R Cr2 Si2 C compounds (R= La, Ce, Pr)'
loop_
_citation_id
_citation_journal_full
_citation_year
_citation_journal_volume
_citation_page_first
_citation_page_last
_citation_journal_id_ASTM
primary 'Physica B, Condensed Matter' 2008 403 2338 2343 PHYBE3
loop_
_publ_author_name
'Janatova, M.'
'Vejpravova, J.'
'Divis, M.'
'Sechovsky, V.'
_cell_length_a 4.0646
_cell_length_b 4.0646
_cell_length_c 5.4196
_cell_angle_alpha 90.
_cell_angle_beta 90.
_cell_angle_gamma 90.
_cell_volume 89.54
_cell_formula_units_Z 1
_symmetry_space_group_name_H-M 'P 4/m m m'
_symmetry_Int_Tables_number 123
loop_
_symmetry_equiv_pos_site_id
_symmetry_equiv_pos_as_xyz
1 'y, x, -z'
2 '-y, -x, -z'
3 '-y, x, -z'
4 'y, -x, -z'
5 '-x, y, -z'
6 'x, -y, -z'
7 'x, y, -z'
8 '-x, -y, -z'
9 '-y, -x, z'
10 'y, x, z'
11 'y, -x, z'
12 '-y, x, z'
13 'x, -y, z'
14 '-x, y, z'
15 '-x, -y, z'
16 'x, y, z'
loop_
_atom_type_symbol
_atom_type_oxidation_number
La0+ 0
Cr0+ 0
Si0+ 0
C0+ 0
loop_
_atom_site_label
_atom_site_type_symbol
_atom_site_symmetry_multiplicity
_atom_site_Wyckoff_symbol
_atom_site_fract_x
_atom_site_fract_y
_atom_site_fract_z
_atom_site_B_iso_or_equiv
_atom_site_occupancy
_atom_site_attached_hydrogens
La1 La0+ 1 a 0 0 0 . 1. 0
Cr1 Cr0+ 2 e 0 0.5 0.5 . 1. 0
Si1 Si0+ 2 h 0.5 0.5 0.2311 . 1. 0
C1 C0+ 1 b 0 0 0.5 . 1. 0
#End of TTdata_160691-ICSD