
#(C) 2017 by FIZ Karlsruhe - Leibniz Institute for Information Infrastructure.  All rights reserved.
data_160755-ICSD
_database_code_ICSD 160755
_audit_creation_date 2009-02-01
_chemical_name_systematic 'Niobium aluminium carbide (4/1/3) - alpha'
_chemical_formula_structural 'Nb4 Al C3'
_chemical_formula_sum 'C3 Al1 Nb4'
_chemical_name_structure_type Ti4AlN3
_exptl_crystal_density_diffrn 7.06
_publ_section_title 'Nb4 Al C3: a new compound belonging to the MAX phases'
loop_
_citation_id
_citation_journal_full
_citation_year
_citation_journal_volume
_citation_page_first
_citation_page_last
_citation_journal_id_ASTM
primary 'Scripta Materialia' 2007 57 893 896 SCMAF7
loop_
_publ_author_name
'Hu Chunfeng'
'Li Fangzhi'
'Zhang Jie'
'Wang Jiemin'
'Wang Jingyang'
'Zhou Yanchun'
_cell_length_a 3.1296
_cell_length_b 3.1296
_cell_length_c 24.1208
_cell_angle_alpha 90.
_cell_angle_beta 90.
_cell_angle_gamma 120.
_cell_volume 204.6
_cell_formula_units_Z 2
_symmetry_space_group_name_H-M 'P 63/m m c'
_symmetry_Int_Tables_number 194
_refine_ls_R_factor_all 0.0935
loop_
_symmetry_equiv_pos_site_id
_symmetry_equiv_pos_as_xyz
1 'x, x-y, -z+1/2'
2 '-x+y, y, -z+1/2'
3 '-y, -x, -z+1/2'
4 '-x+y, -x, -z+1/2'
5 '-y, x-y, -z+1/2'
6 'x, y, -z+1/2'
7 '-x, -x+y, z+1/2'
8 'x-y, -y, z+1/2'
9 'y, x, z+1/2'
10 'x-y, x, z+1/2'
11 'y, -x+y, z+1/2'
12 '-x, -y, z+1/2'
13 '-x, -x+y, -z'
14 'x-y, -y, -z'
15 'y, x, -z'
16 'x-y, x, -z'
17 'y, -x+y, -z'
18 '-x, -y, -z'
19 'x, x-y, z'
20 '-x+y, y, z'
21 '-y, -x, z'
22 '-x+y, -x, z'
23 '-y, x-y, z'
24 'x, y, z'
loop_
_atom_type_symbol
_atom_type_oxidation_number
Nb0+ 0
Al0+ 0
C0+ 0
loop_
_atom_site_label
_atom_site_type_symbol
_atom_site_symmetry_multiplicity
_atom_site_Wyckoff_symbol
_atom_site_fract_x
_atom_site_fract_y
_atom_site_fract_z
_atom_site_B_iso_or_equiv
_atom_site_occupancy
_atom_site_attached_hydrogens
Nb1 Nb0+ 4 f 0.3333 0.6667 0.0553 . 1. 0
Nb2 Nb0+ 4 e 0 0 0.1574 . 1. 0
Al1 Al0+ 2 c 0.3333 0.6667 0.25 . 1. 0
C1 C0+ 2 a 0 0 0 . 1. 0
C2 C0+ 4 f 0.6667 0.3333 0.1086 . 1. 0
#End of TTdata_160755-ICSD