
data_16113-ICSD
_database_code_ICSD 16113
_audit_creation_date 1980-01-01
_audit_update_record 2004-04-01
_chemical_name_systematic 'Thallium Fluoride'
_chemical_formula_structural 'Tl F'
_chemical_formula_sum 'F1 Tl1'
_exptl_crystal_density_diffrn 9.04
_cell_length_a 5.1848(2)
_cell_length_b 6.0980(3)
_cell_length_c 5.1916(2)
_cell_angle_alpha 90.
_cell_angle_beta 90.
_cell_angle_gamma 90.
_cell_volume 164.14
_cell_formula_units_Z 4
_symmetry_space_group_name_H-M 'P m 2 a'
_symmetry_Int_Tables_number 28
_refine_ls_R_factor_all 0.101
loop_
_symmetry_equiv_pos_site_id
_symmetry_equiv_pos_as_xyz
1 'x+1/2, y, -z'
2 '-x+1/2, y, z'
3 '-x, y, -z'
4 'x, y, z'
loop_
_atom_type_symbol
_atom_type_oxidation_number
Tl1+ 1
F1- -1
loop_
_atom_site_label
_atom_site_type_symbol
_atom_site_symmetry_multiplicity
_atom_site_Wyckoff_symbol
_atom_site_fract_x
_atom_site_fract_y
_atom_site_fract_z
_atom_site_B_iso_or_equiv
_atom_site_occupancy
_atom_site_attached_hydrogens
Tl1 Tl1+ 2 c 0.25 0 0.2500(16) 1.39 1. 0
Tl2 Tl1+ 2 c 0.25 0.4869(9) 0.7450(15) 1.39 1. 0
F1 F1- 2 c 0.25 0.5719(24) 0.1943(19) 2.41 1. 0
F2 F1- 2 c 0.25 0.8500(26) 0.6713(19) 2.41 1. 0
