
#(C) 2017 by FIZ Karlsruhe - Leibniz Institute for Information Infrastructure.  All rights reserved.
data_16120-ICSD
_database_code_ICSD 16120
_audit_creation_date 1980-01-01
_audit_update_record 2003-04-01
_chemical_name_systematic 'Diammonium chromate'
_chemical_formula_structural '(N H4)2 (Cr O4)'
_chemical_formula_sum 'H8 Cr1 N2 O4'
_chemical_name_structure_type CrN2(H2O)4
_exptl_crystal_density_diffrn 1.89
_publ_section_title
'Redetermination of the crystal structure of ammonium chromate, (N H4)2 Cr O4'
loop_
_citation_id
_citation_journal_full
_citation_year
_citation_journal_volume
_citation_page_first
_citation_page_last
_citation_journal_id_ASTM
primary

;
Journal of the Chemical Society A: Inorganic, Physical, Theoretical
(1966-1971)
; 1969 1969 1857 1861 JCSIAP
loop_
_publ_author_name
'Gatehouse, B.M.'
'Leverett, P.'
_cell_length_a 12.300(2)
_cell_length_b 6.294(5)
_cell_length_c 7.664(2)
_cell_angle_alpha 90.
_cell_angle_beta 115.6(1)
_cell_angle_gamma 90.
_cell_volume 535.07
_cell_formula_units_Z 4
_symmetry_space_group_name_H-M 'C 1 2/m 1'
_symmetry_Int_Tables_number 12
_refine_ls_R_factor_all 0.088
loop_
_symmetry_equiv_pos_site_id
_symmetry_equiv_pos_as_xyz
1 '-x, y, -z'
2 '-x, -y, -z'
3 'x, -y, z'
4 'x, y, z'
5 '-x+1/2, y+1/2, -z'
6 '-x+1/2, -y+1/2, -z'
7 'x+1/2, -y+1/2, z'
8 'x+1/2, y+1/2, z'
loop_
_atom_type_symbol
_atom_type_oxidation_number
Cr6+ 6
N3- -3
O2- -2
H1+ 1
loop_
_atom_site_label
_atom_site_type_symbol
_atom_site_symmetry_multiplicity
_atom_site_Wyckoff_symbol
_atom_site_fract_x
_atom_site_fract_y
_atom_site_fract_z
_atom_site_B_iso_or_equiv
_atom_site_occupancy
_atom_site_attached_hydrogens
Cr1 Cr6+ 4 i 0.17184(14) 0 0.21223(24) . 1. 0
N1 N3- 4 i 0.5160(9) 0 0.2512(14) . 1. 0
N2 N3- 4 i 0.8409(9) 0 0.2660(14) . 1. 0
O1 O2- 4 i 0.3182(7) 0 0.3549(13) . 1. 0
O2 O2- 4 i 0.0903(7) 0 0.3382(12) . 1. 0
O3 O2- 8 j 0.1405(5) 0.2174(11) 0.0754(8) . 1. 0
loop_
_atom_site_aniso_label
_atom_site_aniso_type_symbol
_atom_site_aniso_beta_11
_atom_site_aniso_beta_22
_atom_site_aniso_beta_33
_atom_site_aniso_beta_12
_atom_site_aniso_beta_13
_atom_site_aniso_beta_23
Cr1 Cr6+ 0.0018(1) 0.0027(6) 0.0075(3) 0 0.0019(1) 0
N1 N3- 0.0046(8) 0.0078(37) 0.0116(22) 0 0.0041(11) 0
N2 N3- 0.0033(7) 0.0114(40) 0.010(2) 0 0.0041(11) 0
O1 O2- 0.0023(6) 0.0174(35) 0.0127(19) 0 0.0013(9) 0
O2 O2- 0.0021(6) 0.0154(35) 0.0127(19) 0 0.0027(8) 0
O3 O2- 0.0039(4) 0.0061(11) 0.0093(11) -.0001(7) 0.0020(6) 0.0017(11)
#End of TTdata_16120-ICSD