
#(C) 2017 by FIZ Karlsruhe - Leibniz Institute for Information Infrastructure.  All rights reserved.
data_161325-ICSD
_database_code_ICSD 161325
_audit_creation_date 2009-02-01
_audit_update_record 2013-08-01
_chemical_name_systematic 'Ammonium tribromomercurate hydrate'
_chemical_formula_structural '(N H4) (Hg Br3) (H2 O)'
_chemical_formula_sum 'H6 Br3 Hg1 N1 O1'
_exptl_crystal_density_diffrn 4.01
_cell_measurement_temperature 299.
_publ_section_title

;
Structural investigation of the phase transitions of tribromo ammonium
mercurate(II) monohydrate
;
loop_
_citation_id
_citation_journal_full
_citation_year
_citation_journal_volume
_citation_page_first
_citation_page_last
_citation_journal_id_ASTM
primary 'Journal of Alloys and Compounds' 2008 463 100 106 JALCEU
loop_
_publ_author_name
'Loukil, M.'
'Kabadou, A.'
'Ben Salah, A.'
'Fuess, H.'
_cell_length_a 4.4755(10)
_cell_length_b 17.226(2)
_cell_length_c 10.240(2)
_cell_angle_alpha 90.
_cell_angle_beta 90.
_cell_angle_gamma 90.
_cell_volume 789.45
_cell_formula_units_Z 4
_symmetry_space_group_name_H-M 'C m c 21'
_symmetry_Int_Tables_number 36
_refine_ls_R_factor_all 0.055
loop_
_symmetry_equiv_pos_site_id
_symmetry_equiv_pos_as_xyz
1 'x, -y, z+1/2'
2 '-x, -y, z+1/2'
3 '-x, y, z'
4 'x, y, z'
5 'x+1/2, -y+1/2, z+1/2'
6 '-x+1/2, -y+1/2, z+1/2'
7 '-x+1/2, y+1/2, z'
8 'x+1/2, y+1/2, z'
loop_
_atom_type_symbol
_atom_type_oxidation_number
Hg2+ 2
Br1- -1
N3- -3
O2- -2
H1+ 1
loop_
_atom_site_label
_atom_site_type_symbol
_atom_site_symmetry_multiplicity
_atom_site_Wyckoff_symbol
_atom_site_fract_x
_atom_site_fract_y
_atom_site_fract_z
_atom_site_B_iso_or_equiv
_atom_site_occupancy
_atom_site_attached_hydrogens
Hg1 Hg2+ 4 a 0.5 0.99901(6) -0.0425(16) 0.0790(7) 1. 0
Br1 Br1- 4 a 0 0.99879(12) 0.1305(16) 0.0429(6) 1. 0
Br2 Br1- 4 a 0.5 0.13756(14) -0.1085(15) 0.0480(10) 1. 0
Br3 Br1- 4 a 0.5 0.85915(14) -0.1160(15) 0.0386(7) 1. 0
N1 N3- 4 a 0 0.2087(15) 0.1437(12) 0.106(17) 1. 0
O1 O2- 4 a 0.5 0.3010(7) 0.1385(18) 0.038(4) 1. 0
loop_
_atom_site_aniso_label
_atom_site_aniso_type_symbol
_atom_site_aniso_U_11
_atom_site_aniso_U_22
_atom_site_aniso_U_33
_atom_site_aniso_U_12
_atom_site_aniso_U_13
_atom_site_aniso_U_23
Hg1 Hg2+ 0.0681(8) 0.0326(6) 0.1364(15) 0. 0. -0.0027(8)
Br1 Br1- 0.0382(11) 0.0304(10) 0.0600(13) 0. 0. -0.0010(12)
Br2 Br1- 0.0646(15) 0.0303(11) 0.049(3) 0. 0. 0.0060(2)
Br3 Br1- 0.0382(11) 0.0377(12) 0.0398(19) 0. 0. -0.0086(12)
N1 N3- 0.048(16) 0.023(5) 0.043(12) 0. 0. 0.007(3)
O1 O2- 0.024(7) 0.007(5) 0.081(9) 0. 0. -0.010(7)
#End of TTdata_161325-ICSD