
#(C) 2017 by FIZ Karlsruhe - Leibniz Institute for Information Infrastructure.  All rights reserved.
data_161492-ICSD
_database_code_ICSD 161492
_audit_creation_date 2009-02-01
_audit_update_record 2013-02-01
_chemical_name_systematic 'Cobalt antimonide (1/2) - nano-sized'
_chemical_formula_structural 'Co Sb2'
_chemical_formula_sum 'Co1 Sb2'
_chemical_name_structure_type FeAsS-CoSb2
_exptl_crystal_density_diffrn 8.29
_publ_section_title
'Solvothermal synthesis of nano-sized skutterudite Co4-x Fex Sb12 powders'
loop_
_citation_id
_citation_journal_full
_citation_year
_citation_journal_volume
_citation_page_first
_citation_page_last
_citation_journal_id_ASTM
primary 'Materials Chemistry and Physics' 2008 112 57 62 MCHPDR
loop_
_publ_author_name
'Li, J.-Q.'
'Feng, X.W.'
'Sun, W.A.'
'Ao, W.Q.'
'Liu, F.-S.'
'Du, Y.'
_cell_length_a 6.552(1)
_cell_length_b 6.3920(6)
_cell_length_c 6.5124(1)
_cell_angle_alpha 90.
_cell_angle_beta 117.37(1)
_cell_angle_gamma 90.
_cell_volume 242.21
_cell_formula_units_Z 4
_symmetry_space_group_name_H-M 'P 1 21/c 1'
_symmetry_Int_Tables_number 14
_refine_ls_R_factor_all 0.0395
loop_
_symmetry_equiv_pos_site_id
_symmetry_equiv_pos_as_xyz
1 'x, -y+1/2, z+1/2'
2 '-x, -y, -z'
3 '-x, y+1/2, -z+1/2'
4 'x, y, z'
loop_
_atom_type_symbol
_atom_type_oxidation_number
Co0+ 0
Sb0+ 0
loop_
_atom_site_label
_atom_site_type_symbol
_atom_site_symmetry_multiplicity
_atom_site_Wyckoff_symbol
_atom_site_fract_x
_atom_site_fract_y
_atom_site_fract_z
_atom_site_B_iso_or_equiv
_atom_site_occupancy
_atom_site_attached_hydrogens
Co1 Co0+ 4 e 0.286(3) 0.009(4) 0.284(3) 1.0(3) 1. 0
Sb1 Sb0+ 4 e 0.344(1) 0.357(1) 0.159(1) 0.10(1) 1. 0
Sb2 Sb0+ 4 e 0.156(1) 0.631(1) 0.382(1) 3.1(2) 1. 0
#End of TTdata_161492-ICSD