
#(C) 2017 by FIZ Karlsruhe - Leibniz Institute for Information Infrastructure.  All rights reserved.
data_16214-ICSD
_database_code_ICSD 16214
_audit_creation_date 1980-01-01
_audit_update_record 2006-04-01
_chemical_name_systematic 'Discandium disilicate'
_chemical_formula_structural 'Sc2 (Si2 O7)'
_chemical_formula_sum 'O7 Sc2 Si2'
_chemical_name_structure_type Sc2Si2O7
_chemical_name_mineral Thortveitite
_exptl_crystal_density_diffrn 3.4
_publ_section_title 'Refinement of the crystal structure of thortveitite'
loop_
_citation_id
_citation_journal_full
_citation_year
_citation_journal_volume
_citation_page_first
_citation_page_last
_citation_journal_id_ASTM
primary Kristallografiya 1972 17 857 858 KRISAJ
loop_
_publ_author_name
'Smolin, Yu.I.'
'Shepelev, Yu.F.'
'Titov, A.P.'
_cell_length_a 6.503(2)
_cell_length_b 8.498(3)
_cell_length_c 4.682(2)
_cell_angle_alpha 90.
_cell_angle_beta 102.77(7)
_cell_angle_gamma 90.
_cell_volume 252.34
_cell_formula_units_Z 2
_symmetry_space_group_name_H-M 'C 1 2/m 1'
_symmetry_Int_Tables_number 12
_refine_ls_R_factor_all 0.048
loop_
_symmetry_equiv_pos_site_id
_symmetry_equiv_pos_as_xyz
1 '-x, y, -z'
2 '-x, -y, -z'
3 'x, -y, z'
4 'x, y, z'
5 '-x+1/2, y+1/2, -z'
6 '-x+1/2, -y+1/2, -z'
7 'x+1/2, -y+1/2, z'
8 'x+1/2, y+1/2, z'
loop_
_atom_type_symbol
_atom_type_oxidation_number
Sc3+ 3
Si4+ 4
O2- -2
loop_
_atom_site_label
_atom_site_type_symbol
_atom_site_symmetry_multiplicity
_atom_site_Wyckoff_symbol
_atom_site_fract_x
_atom_site_fract_y
_atom_site_fract_z
_atom_site_B_iso_or_equiv
_atom_site_occupancy
_atom_site_attached_hydrogens
Sc1 Sc3+ 4 g 0.5 0.80944(5) 0 0.4 1. 0
Si1 Si4+ 4 i 0.72379(8) 0.5 0.40844(1) 0.43 1. 0
O1 O2- 2 c 0.5 0.5 0.5 0.98 1. 0
O2 O2- 4 i 0.8934(2) 0.5 0.7208(3) 0.55 1. 0
O3 O2- 8 j 0.7358(1) 0.6576(2) 0.2137(2) 0.65 1. 0
#End of TTdata_16214-ICSD