
#(C) 2017 by FIZ Karlsruhe - Leibniz Institute for Information Infrastructure.  All rights reserved.
data_16296-ICSD
_database_code_ICSD 16296
_audit_creation_date 1986-11-04
_audit_update_record 2012-02-01
_chemical_name_systematic 'Palladium tetrathiophosphate'
_chemical_formula_structural 'Pd3 (P S4)2'
_chemical_formula_sum 'P2 Pd3 S8'
_chemical_name_structure_type Pd3P2S8
_exptl_crystal_density_diffrn 3.61
_publ_section_title
'Palladium and Platinum Phosphochalcogenides - Synthesis and Properties'
loop_
_citation_id
_citation_journal_full
_citation_year
_citation_journal_volume
_citation_page_first
_citation_page_last
_citation_journal_id_ASTM
primary 'Journal of Solid State Chemistry' 1971 3 300 307 JSSCBI
loop_
_publ_author_name
'Bither, T.A.'
'Donohue, P.C.'
'Young, H.S.'
_cell_length_a 6.836
_cell_length_b 6.836
_cell_length_c 7.239
_cell_angle_alpha 90.
_cell_angle_beta 90.
_cell_angle_gamma 120.
_cell_volume 292.96
_cell_formula_units_Z 1
_symmetry_space_group_name_H-M 'P -3 m 1'
_symmetry_Int_Tables_number 164
_refine_ls_R_factor_all 0.07
loop_
_symmetry_equiv_pos_site_id
_symmetry_equiv_pos_as_xyz
1 'x-y, -y, -z'
2 '-x, -x+y, -z'
3 'y, x, -z'
4 'x-y, x, -z'
5 'y, -x+y, -z'
6 '-x, -y, -z'
7 '-x+y, y, z'
8 'x, x-y, z'
9 '-y, -x, z'
10 '-x+y, -x, z'
11 '-y, x-y, z'
12 'x, y, z'
loop_
_atom_type_symbol
_atom_type_oxidation_number
Pd2+ 2
S2- -2
P5+ 5
loop_
_atom_site_label
_atom_site_type_symbol
_atom_site_symmetry_multiplicity
_atom_site_Wyckoff_symbol
_atom_site_fract_x
_atom_site_fract_y
_atom_site_fract_z
_atom_site_B_iso_or_equiv
_atom_site_occupancy
_atom_site_attached_hydrogens
Pd1 Pd2+ 3 e 0.5 0 0 2.1 1. 0
S1 S2- 6 i 0.174(2) -.174(2) 0.177(5) 2.5 1. 0
S2 S2- 2 d 0.3333 0.6667 0.58(1) 2.5 1. 0
P1 P5+ 2 d 0.3333 0.6667 0.30(1) 1. 1. 0
#End of TTdata_16296-ICSD