
#(C) 2017 by FIZ Karlsruhe - Leibniz Institute for Information Infrastructure.  All rights reserved.
data_16307-ICSD
_database_code_ICSD 16307
_audit_creation_date 1980-01-01
_chemical_name_systematic 'Barium diiron sulfide'
_chemical_formula_structural 'Ba Fe2 S3'
_chemical_formula_sum 'Ba1 Fe2 S3'
_chemical_name_structure_type CsCu2Cl3
_exptl_crystal_density_diffrn 4.4
_publ_section_title
'The Crystal Chemistry of Phases in the Ba-Fe-S and Se Systems'
loop_
_citation_id
_citation_journal_full
_citation_year
_citation_journal_volume
_citation_page_first
_citation_page_last
_citation_journal_id_ASTM
primary 'Journal of Solid State Chemistry' 1972 5 93 104 JSSCBI
loop_
_publ_author_name
'Hong, H.Y.-P.'
'Steinfink, H.'
_cell_length_a 8.7835(9)
_cell_length_b 11.219
_cell_length_c 5.286
_cell_angle_alpha 90.
_cell_angle_beta 90.
_cell_angle_gamma 90.
_cell_volume 520.89
_cell_formula_units_Z 4
_symmetry_space_group_name_H-M 'C m c m'
_symmetry_Int_Tables_number 63
_refine_ls_R_factor_all 0.067
loop_
_symmetry_equiv_pos_site_id
_symmetry_equiv_pos_as_xyz
1 '-x, y, -z+1/2'
2 '-x, -y, z+1/2'
3 '-x, y, z'
4 '-x, -y, -z'
5 'x, -y, z+1/2'
6 'x, y, -z+1/2'
7 'x, -y, -z'
8 'x, y, z'
9 '-x+1/2, y+1/2, -z+1/2'
10 '-x+1/2, -y+1/2, z+1/2'
11 '-x+1/2, y+1/2, z'
12 '-x+1/2, -y+1/2, -z'
13 'x+1/2, -y+1/2, z+1/2'
14 'x+1/2, y+1/2, -z+1/2'
15 'x+1/2, -y+1/2, -z'
16 'x+1/2, y+1/2, z'
loop_
_atom_type_symbol
_atom_type_oxidation_number
Ba2+ 2
Fe2+ 2
S2- -2
loop_
_atom_site_label
_atom_site_type_symbol
_atom_site_symmetry_multiplicity
_atom_site_Wyckoff_symbol
_atom_site_fract_x
_atom_site_fract_y
_atom_site_fract_z
_atom_site_B_iso_or_equiv
_atom_site_occupancy
_atom_site_attached_hydrogens
Ba1 Ba2+ 4 c 0.5 0.1859(3) 0.25 . 1. 0
Fe1 Fe2+ 8 e 0.3464(4) 0.5 0 . 1. 0
S1 S2- 4 c 0.5 0.6147(9) 0.25 . 1. 0
S2 S2- 8 g 0.2074(9) 0.3768(7) 0.25 . 1. 0
loop_
_atom_site_aniso_label
_atom_site_aniso_type_symbol
_atom_site_aniso_beta_11
_atom_site_aniso_beta_22
_atom_site_aniso_beta_33
_atom_site_aniso_beta_12
_atom_site_aniso_beta_13
_atom_site_aniso_beta_23
Ba1 Ba2+ 0.0066(3) 0.0041(2) 0.0094(9) 0 0 0
Fe1 Fe2+ 0.0026(4) 0.0014(3) 0.0033(11) 0 0 0
S1 S2- 0.0035(12) 0.0010(7) 0.0070(34) 0 0 0
S2 S2- 0.0052(9) 0.0041(7) 0.0050(23) 0 0 0
#End of TTdata_16307-ICSD