
#(C) 2017 by FIZ Karlsruhe - Leibniz Institute for Information Infrastructure.  All rights reserved.
data_16325-ICSD
_database_code_ICSD 16325
_audit_creation_date 1980-01-01
_audit_update_record 1994-06-30
_chemical_name_systematic 'Gold telluride iodide (1/2/1)'
_chemical_formula_structural 'Au Te2 I'
_chemical_formula_sum 'Au1 I1 Te2'
_exptl_crystal_density_diffrn 7.95
_publ_section_title 'The Crystal Structures of Au Te2 Cl and Au Te2 I'
loop_
_citation_id
_citation_journal_full
_citation_year
_citation_journal_volume
_citation_page_first
_citation_page_last
_citation_journal_id_ASTM
primary 'Journal of Solid State Chemistry' 1974 10 175 181 JSSCBI
loop_
_publ_author_name
'Haendler, H.M.'
'Mootz, D.'
'Rabenau, A.'
'Rosenstein, G.'
_cell_length_a 4.056(1)
_cell_length_b 12.579(2)
_cell_length_c 4.741(1)
_cell_angle_alpha 90.
_cell_angle_beta 90.
_cell_angle_gamma 90.
_cell_volume 241.89
_cell_formula_units_Z 2
_symmetry_space_group_name_H-M 'P m m b'
_symmetry_Int_Tables_number 51
_refine_ls_R_factor_all 0.035
loop_
_symmetry_equiv_pos_site_id
_symmetry_equiv_pos_as_xyz
1 '-x, -y+1/2, z'
2 '-x, y+1/2, -z'
3 '-x, y, z'
4 '-x, -y, -z'
5 'x, y+1/2, -z'
6 'x, -y+1/2, z'
7 'x, -y, -z'
8 'x, y, z'
loop_
_atom_type_symbol
_atom_type_oxidation_number
Au0+ 0
Te0+ 0
I0+ 0
loop_
_atom_site_label
_atom_site_type_symbol
_atom_site_symmetry_multiplicity
_atom_site_Wyckoff_symbol
_atom_site_fract_x
_atom_site_fract_y
_atom_site_fract_z
_atom_site_B_iso_or_equiv
_atom_site_occupancy
_atom_site_attached_hydrogens
Au1 Au0+ 2 c 0 0 0.5 . 1. 0
Te1 Te0+ 4 j 0.5 0.08158(5) 0.19745(12) . 1. 0
I1 I0+ 2 e 0 0.25 0.73103(21) . 1. 0
loop_
_atom_site_aniso_label
_atom_site_aniso_type_symbol
_atom_site_aniso_U_11
_atom_site_aniso_U_22
_atom_site_aniso_U_33
_atom_site_aniso_U_12
_atom_site_aniso_U_13
_atom_site_aniso_U_23
Au1 Au0+ 0.0115(2) 0.0268(3) 0.0117(2) 0 0 0.0027(2)
Te1 Te0+ 0.0128(3) 0.0190(3) 0.0134(2) 0 0 0.0020(2)
I1 I0+ 0.0241(5) 0.0185(4) 0.0294(4) 0 0 0
#End of TTdata_16325-ICSD