
data_16359-ICSD
_database_code_ICSD 16359
_audit_creation_date 1984-09-04
_chemical_name_systematic 'Barium selenide (1/3)'
_chemical_formula_structural 'Ba Se3'
_chemical_formula_sum 'Ba1 Se3'
_chemical_name_structure_type BaS3
_exptl_crystal_density_diffrn 5.52
_cell_length_a 7.2802(5)
_cell_length_b 7.2802(5)
_cell_length_c 4.2495(4)
_cell_angle_alpha 90.
_cell_angle_beta 90.
_cell_angle_gamma 90.
_cell_volume 225.23
_cell_formula_units_Z 2
_symmetry_space_group_name_H-M 'P -4 21 m'
_symmetry_Int_Tables_number 113
_refine_ls_R_factor_all 0.092
loop_
_symmetry_equiv_pos_site_id
_symmetry_equiv_pos_as_xyz
1 '-y+1/2, -x+1/2, z'
2 'y, -x, -z'
3 'y+1/2, x+1/2, z'
4 '-y, x, -z'
5 'x+1/2, -y+1/2, -z'
6 '-x, -y, z'
7 '-x+1/2, y+1/2, -z'
8 'x, y, z'
loop_
_atom_type_symbol
_atom_type_oxidation_number
Ba0+ 0
Se0+ 0
loop_
_atom_site_label
_atom_site_type_symbol
_atom_site_symmetry_multiplicity
_atom_site_Wyckoff_symbol
_atom_site_fract_x
_atom_site_fract_y
_atom_site_fract_z
_atom_site_B_iso_or_equiv
_atom_site_occupancy
_atom_site_attached_hydrogens
Ba1 Ba0+ 2 a 0 0 0 . 1. 0
Se1 Se0+ 2 c 0 0.5 0.175(15) . 1. 0
Se2 Se0+ 4 e 0.189(3) 0.689(3) 0.485(20) . 1. 0
