
#(C) 2017 by FIZ Karlsruhe - Leibniz Institute for Information Infrastructure.  All rights reserved.
data_16360-ICSD
_database_code_ICSD 16360
_audit_creation_date 1981-12-31
_audit_update_record 2010-08-01
_chemical_name_systematic 'Dibarium dimanganese diantimonide oxide'
_chemical_formula_structural 'Ba2 Mn2 Sb2 O'
_chemical_formula_sum 'Ba2 Mn2 O1 Sb2'
_chemical_name_structure_type Ba2Mn2Sb2O
_exptl_crystal_density_diffrn 5.56
_publ_section_title
'Ueber Oxidpnictide: Zur Kenntnis von Ba2 Mn2 Sb2 O und Ba2 Mn2 Bi2 O'
loop_
_citation_id
_citation_journal_full
_citation_year
_citation_journal_volume
_citation_page_first
_citation_page_last
_citation_journal_id_ASTM
primary

;
Zeitschrift fuer Naturforschung, Teil B. Anorganische Chemie, Organische
Chemie (33,1978-41,1986)
; 1981 36 27 30 ZNBAD2
loop_
_publ_author_name
'Brechtel, E.'
'Cordier, G.'
'Schaefer, H.'
_cell_length_a 4.71(1)
_cell_length_b 4.71(1)
_cell_length_c 20.04(2)
_cell_angle_alpha 90.
_cell_angle_beta 90.
_cell_angle_gamma 120.
_cell_volume 385.01
_cell_formula_units_Z 2
_symmetry_space_group_name_H-M 'P 63/m m c'
_symmetry_Int_Tables_number 194
_refine_ls_R_factor_all 0.055
loop_
_symmetry_equiv_pos_site_id
_symmetry_equiv_pos_as_xyz
1 'x, x-y, -z+1/2'
2 '-x+y, y, -z+1/2'
3 '-y, -x, -z+1/2'
4 '-x+y, -x, -z+1/2'
5 '-y, x-y, -z+1/2'
6 'x, y, -z+1/2'
7 '-x, -x+y, z+1/2'
8 'x-y, -y, z+1/2'
9 'y, x, z+1/2'
10 'x-y, x, z+1/2'
11 'y, -x+y, z+1/2'
12 '-x, -y, z+1/2'
13 '-x, -x+y, -z'
14 'x-y, -y, -z'
15 'y, x, -z'
16 'x-y, x, -z'
17 'y, -x+y, -z'
18 '-x, -y, -z'
19 'x, x-y, z'
20 '-x+y, y, z'
21 '-y, -x, z'
22 '-x+y, -x, z'
23 '-y, x-y, z'
24 'x, y, z'
loop_
_atom_type_symbol
_atom_type_oxidation_number
Ba2+ 2
Mn2+ 2
Sb3- -3
O2- -2
loop_
_atom_site_label
_atom_site_type_symbol
_atom_site_symmetry_multiplicity
_atom_site_Wyckoff_symbol
_atom_site_fract_x
_atom_site_fract_y
_atom_site_fract_z
_atom_site_B_iso_or_equiv
_atom_site_occupancy
_atom_site_attached_hydrogens
Ba1 Ba2+ 2 b 0 0 0.25 . 1. 0
Ba2 Ba2+ 2 a 0 0 0 . 1. 0
Mn1 Mn2+ 4 f 0.3333 0.6667 0.6495(3) . 1. 0
Sb1 Sb3- 4 f 0.3333 0.6667 0.3873(1) . 1. 0
O1 O2- 2 d 0.3333 0.6667 0.75 0.03(1) 1. 0
loop_
_atom_site_aniso_label
_atom_site_aniso_type_symbol
_atom_site_aniso_U_11
_atom_site_aniso_U_22
_atom_site_aniso_U_33
_atom_site_aniso_U_12
_atom_site_aniso_U_13
_atom_site_aniso_U_23
Ba1 Ba2+ 0.008(1) 0.008(1) 0.017(1) 0.004(1) 0 0
Ba2 Ba2+ 0.010(1) 0.010(1) 0.019(1) 0.005(1) 0 0
Mn1 Mn2+ 0.011(2) 0.011(2) 0.016(2) 0.0055(10) 0 0
Sb1 Sb3- 0.009(1) 0.009(1) 0.017(1) 0.0045(3) 0 0
#End of TTdata_16360-ICSD