
#(C) 2017 by FIZ Karlsruhe - Leibniz Institute for Information Infrastructure.  All rights reserved.
data_163983-ICSD
_database_code_ICSD 163983
_audit_creation_date 2009-08-01
_chemical_name_systematic 'Trisilver copper(I) sulfide'
_chemical_formula_structural 'Ag3 Cu S2'
_chemical_formula_sum 'Ag3 Cu1 S2'
_chemical_name_mineral Jalpaite
_exptl_crystal_density_diffrn 6.89
_cell_measurement_temperature 120.
_publ_section_title 'Phase transitions in jalpaite, Ag3 Cu S2'
loop_
_citation_id
_citation_journal_full
_citation_year
_citation_journal_volume
_citation_page_first
_citation_page_last
_citation_journal_id_ASTM
primary 'Journal of Physics: Condensed Matter' 2008 20 455204-1 455204-10 JCOMEL
loop_
_publ_author_name
'Trots, D.M.'
'Senyshyn, A.'
'Mikhailova, D.A.'
'Vad, T.'
'Fuess, H.'
_cell_length_a 8.6200(3)
_cell_length_b 8.6200(3)
_cell_length_c 11.7091(5)
_cell_angle_alpha 90.
_cell_angle_beta 90.
_cell_angle_gamma 90.
_cell_volume 870.04
_cell_formula_units_Z 8
_symmetry_space_group_name_H-M 'I 41/a Z'
_symmetry_Int_Tables_number 88
_refine_ls_R_factor_all 0.053
loop_
_symmetry_equiv_pos_site_id
_symmetry_equiv_pos_as_xyz
1 '-y+3/4, x+3/4, -z+3/4'
2 'y+1/4, -x+3/4, -z+3/4'
3 'x, y+1/2, -z'
4 '-x, -y, -z'
5 'y+1/4, -x+1/4, z+1/4'
6 '-y+3/4, x+1/4, z+1/4'
7 '-x, -y+1/2, z'
8 'x, y, z'
9 '-y+1/4, x+1/4, -z+1/4'
10 'y+3/4, -x+1/4, -z+1/4'
11 'x+1/2, y, -z+1/2'
12 '-x+1/2, -y+1/2, -z+1/2'
13 'y+3/4, -x+3/4, z+3/4'
14 '-y+1/4, x+3/4, z+3/4'
15 '-x+1/2, -y, z+1/2'
16 'x+1/2, y+1/2, z+1/2'
loop_
_atom_type_symbol
_atom_type_oxidation_number
Ag1+ 1
Cu1+ 1
S2- -2
loop_
_atom_site_label
_atom_site_type_symbol
_atom_site_symmetry_multiplicity
_atom_site_Wyckoff_symbol
_atom_site_fract_x
_atom_site_fract_y
_atom_site_fract_z
_atom_site_B_iso_or_equiv
_atom_site_occupancy
_atom_site_attached_hydrogens
Ag1 Ag1+ 8 c 0 0 0 0.0148(6) 1. 0
Ag2 Ag1+ 16 f 0.2826(2) 0.0925(2) 0.8560(1) 0.0138(4) 1. 0
Cu1 Cu1+ 8 e 0 0.25 0.4688(2) 0.0019(8) 1. 0
S1 S2- 16 f 0.0129(6) 0.0018(5) 0.2177(2) 0.001 1. 0
#End of TTdata_163983-ICSD