
#(C) 2017 by FIZ Karlsruhe - Leibniz Institute for Information Infrastructure.  All rights reserved.
data_16481-ICSD
_database_code_ICSD 16481
_audit_creation_date 1980-12-31
_audit_update_record 2007-08-01
_chemical_name_systematic 'Tin oxide'
_chemical_formula_structural 'Sn O'
_chemical_formula_sum 'O1 Sn1'
_chemical_name_structure_type Litharge
_chemical_name_mineral Romarchite
_exptl_crystal_density_diffrn 6.39
_publ_section_title 'Tin(II) oxide: Structure refinement and thermal expansion'
loop_
_citation_id
_citation_journal_full
_citation_year
_citation_journal_volume
_citation_page_first
_citation_page_last
_citation_journal_id_ASTM
primary 'Acta Crystallographica B (24,1968-38,1982)' 1980 36 2763 2765 ACBCAR
loop_
_publ_author_name
'Pannetier, J.'
'Denes, G.'
_cell_length_a 3.8029(5)
_cell_length_b 3.8029(5)
_cell_length_c 4.8382(8)
_cell_angle_alpha 90.
_cell_angle_beta 90.
_cell_angle_gamma 90.
_cell_volume 69.97
_cell_formula_units_Z 2
_symmetry_space_group_name_H-M 'P 4/n m m Z'
_symmetry_Int_Tables_number 129
_refine_ls_R_factor_all 0.043
loop_
_symmetry_equiv_pos_site_id
_symmetry_equiv_pos_as_xyz
1 'y+1/2, x+1/2, -z'
2 '-y, x+1/2, -z'
3 'y+1/2, -x, -z'
4 '-y, -x, -z'
5 'x+1/2, y+1/2, -z'
6 '-x, y+1/2, -z'
7 'x+1/2, -y, -z'
8 '-x, -y, -z'
9 '-y+1/2, -x+1/2, z'
10 'y, -x+1/2, z'
11 '-y+1/2, x, z'
12 'y, x, z'
13 '-x+1/2, -y+1/2, z'
14 'x, -y+1/2, z'
15 '-x+1/2, y, z'
16 'x, y, z'
loop_
_atom_type_symbol
_atom_type_oxidation_number
Sn2+ 2
O2- -2
loop_
_atom_site_label
_atom_site_type_symbol
_atom_site_symmetry_multiplicity
_atom_site_Wyckoff_symbol
_atom_site_fract_x
_atom_site_fract_y
_atom_site_fract_z
_atom_site_B_iso_or_equiv
_atom_site_occupancy
_atom_site_attached_hydrogens
Sn1 Sn2+ 2 c 0.25 0.25 0.2383(8) 0.57(7) 1. 0
O1 O2- 2 a 0.75 0.25 0 0.99(9) 1. 0
#End of TTdata_16481-ICSD