
#(C) 2017 by FIZ Karlsruhe - Leibniz Institute for Information Infrastructure.  All rights reserved.
data_165188-ICSD
_database_code_ICSD 165188
_audit_creation_date 2010-02-01
_chemical_name_systematic 'Potassium strontium indide (2/1/7)'
_chemical_formula_structural 'K2 Sr In7'
_chemical_formula_sum 'In7 K2 Sr1'
_exptl_crystal_density_diffrn 5.4
_cell_measurement_temperature 293.
_publ_section_title

;
K2 Sr In7 : An electron-deficient indium network structure that reflects
limitations of cation accommodation, synthesis, structure, and bonding
;
loop_
_citation_id
_citation_journal_full
_citation_year
_citation_journal_volume
_citation_page_first
_citation_page_last
_citation_journal_id_ASTM
primary 'Inorganic Chemistry' 2001 40 3596 3600 INOCAJ
loop_
_publ_author_name
'Chi Lisheng'
'Corbett, J.D.'
_cell_length_a 5.0455(5)
_cell_length_b 11.960(2)
_cell_length_c 19.762(4)
_cell_angle_alpha 90.
_cell_angle_beta 90.
_cell_angle_gamma 90.
_cell_volume 1192.52
_cell_formula_units_Z 4
_symmetry_space_group_name_H-M 'C m c m'
_symmetry_Int_Tables_number 63
_refine_ls_R_factor_all 0.0438
loop_
_symmetry_equiv_pos_site_id
_symmetry_equiv_pos_as_xyz
1 '-x, y, -z+1/2'
2 '-x, -y, z+1/2'
3 '-x, y, z'
4 '-x, -y, -z'
5 'x, -y, z+1/2'
6 'x, y, -z+1/2'
7 'x, -y, -z'
8 'x, y, z'
9 '-x+1/2, y+1/2, -z+1/2'
10 '-x+1/2, -y+1/2, z+1/2'
11 '-x+1/2, y+1/2, z'
12 '-x+1/2, -y+1/2, -z'
13 'x+1/2, -y+1/2, z+1/2'
14 'x+1/2, y+1/2, -z+1/2'
15 'x+1/2, -y+1/2, -z'
16 'x+1/2, y+1/2, z'
loop_
_atom_type_symbol
_atom_type_oxidation_number
In0+ -0.57
Sr2+ 2
K1+ 1
loop_
_atom_site_label
_atom_site_type_symbol
_atom_site_symmetry_multiplicity
_atom_site_Wyckoff_symbol
_atom_site_fract_x
_atom_site_fract_y
_atom_site_fract_z
_atom_site_B_iso_or_equiv
_atom_site_occupancy
_atom_site_attached_hydrogens
In1 In0+ 4 c 0 0.0441(5) 0.75 0.018(1) 1. 0
In2 In0+ 8 f 0 0.4580(1) 0.5719(1) 0.016(1) 1. 0
In3 In0+ 8 f 0 -0.1221(1) 0.6298(1) 0.017(1) 1. 0
In4 In0+ 8 f 0 0.6401(1) 0.6747(1) 0.018(1) 1. 0
Sr1 Sr2+ 4 c 0 0.3414(2) 0.75 0.017(1) 1. 0
K1 K1+ 8 f 0 0.1605(3) 0.5523(2) 0.020(1) 1. 0
loop_
_atom_site_aniso_label
_atom_site_aniso_type_symbol
_atom_site_aniso_U_11
_atom_site_aniso_U_22
_atom_site_aniso_U_33
_atom_site_aniso_U_12
_atom_site_aniso_U_13
_atom_site_aniso_U_23
In1 In0+ 0.014(1) 0.015(1) 0.024(1) 0. 0. 0.
In2 In0+ 0.014(1) 0.016(1) 0.019(1) 0. 0. 0.001(1)
In3 In0+ 0.014(1) 0.019(1) 0.017(1) 0. 0. 0.003(1)
In4 In0+ 0.022(1) 0.017(1) 0.015(1) 0. 0. 0.000(1)
Sr1 Sr2+ 0.015(1) 0.017(1) 0.020(1) 0. 0. 0.
K1 K1+ 0.019(2) 0.018(2) 0.021(2) 0. 0. -0.004(1)
#End of TTdata_165188-ICSD