
#(C) 2017 by FIZ Karlsruhe - Leibniz Institute for Information Infrastructure.  All rights reserved.
data_165243-ICSD
_database_code_ICSD 165243
_audit_creation_date 2010-02-01
_audit_update_record 2013-08-01
_chemical_name_systematic 'Iron nickel silicide'
_chemical_formula_structural 'Fe Ni Si'
_chemical_formula_sum 'Fe1 Ni1 Si1'
_chemical_name_structure_type Co2Si
_exptl_crystal_density_diffrn 7.05
_publ_section_title 'The Ti Ni Si family of compounds: structure and bonding'
loop_
_citation_id
_citation_journal_full
_citation_year
_citation_journal_volume
_citation_page_first
_citation_page_last
_citation_journal_id_ASTM
primary 'Inorganic Chemistry' 1998 37 5754 5763 INOCAJ
loop_
_publ_author_name
'Landrum, G.A.'
'Hoffmann, R.'
'Evers, J.'
'Boysen, H.'
_cell_length_a 5.007(2)
_cell_length_b 3.753(1)
_cell_length_c 7.149(2)
_cell_angle_alpha 90.
_cell_angle_beta 90.
_cell_angle_gamma 90.
_cell_volume 134.34
_cell_formula_units_Z 4
_symmetry_space_group_name_H-M 'P n m a'
_symmetry_Int_Tables_number 62
_refine_ls_R_factor_all 0.0625
loop_
_symmetry_equiv_pos_site_id
_symmetry_equiv_pos_as_xyz
1 'x+1/2, y, -z+1/2'
2 'x, -y+1/2, z'
3 '-x+1/2, y+1/2, z+1/2'
4 '-x, -y, -z'
5 '-x+1/2, -y, z+1/2'
6 '-x, y+1/2, -z'
7 'x+1/2, -y+1/2, -z+1/2'
8 'x, y, z'
loop_
_atom_type_symbol
_atom_type_oxidation_number
Fe0+ 0
Ni0+ 0
Si0+ 0
loop_
_atom_site_label
_atom_site_type_symbol
_atom_site_symmetry_multiplicity
_atom_site_Wyckoff_symbol
_atom_site_fract_x
_atom_site_fract_y
_atom_site_fract_z
_atom_site_B_iso_or_equiv
_atom_site_occupancy
_atom_site_attached_hydrogens
Fe1 Fe0+ 4 c 0.0425(8) 0.25 0.7130(4) . 1. 0
Ni1 Ni0+ 4 c 0.1726(6) 0.25 0.0611(4) . 1. 0
Si1 Si0+ 4 c 0.2022(15) 0.25 0.3893(9) . 1. 0
#End of TTdata_165243-ICSD