
#(C) 2017 by FIZ Karlsruhe - Leibniz Institute for Information Infrastructure.  All rights reserved.
data_165239-ICSD
_database_code_ICSD 165239
_audit_creation_date 2010-02-01
_chemical_name_systematic 'Calcium aluminide (13/14)'
_chemical_formula_structural 'Ca13 Al14'
_chemical_formula_sum 'Al14 Ca13'
_exptl_crystal_density_diffrn 2.1
_cell_measurement_temperature 293.
_publ_section_title

;
Two new binary calcium-aluminum compounds: Ca13 Al14, with a novel
two-dimensional aluminum framework, and Ca8 Al3, an (Fe3Al)-type analogue
;
loop_
_citation_id
_citation_journal_full
_citation_year
_citation_journal_volume
_citation_page_first
_citation_page_last
_citation_journal_id_ASTM
primary 'Inorganic Chemistry' 1998 37 5827 5833 INOCAJ
loop_
_publ_author_name
'Huang Baoquan'
'Corbett, J.D.'
_cell_length_a 15.551(4)
_cell_length_b 9.873(2)
_cell_length_c 9.726(2)
_cell_angle_alpha 90.
_cell_angle_beta 108.09(2)
_cell_angle_gamma 90.
_cell_volume 1419.47
_cell_formula_units_Z 2
_symmetry_space_group_name_H-M 'C 1 2/m 1'
_symmetry_Int_Tables_number 12
_refine_ls_R_factor_all 0.028
loop_
_symmetry_equiv_pos_site_id
_symmetry_equiv_pos_as_xyz
1 '-x, y, -z'
2 '-x, -y, -z'
3 'x, -y, z'
4 'x, y, z'
5 '-x+1/2, y+1/2, -z'
6 '-x+1/2, -y+1/2, -z'
7 'x+1/2, -y+1/2, z'
8 'x+1/2, y+1/2, z'
loop_
_atom_type_symbol
_atom_type_oxidation_number
Ca0+ 0
Al0+ 0
loop_
_atom_site_label
_atom_site_type_symbol
_atom_site_symmetry_multiplicity
_atom_site_Wyckoff_symbol
_atom_site_fract_x
_atom_site_fract_y
_atom_site_fract_z
_atom_site_B_iso_or_equiv
_atom_site_occupancy
_atom_site_attached_hydrogens
Ca1 Ca0+ 8 j 0.14628(7) 0.2027(1) 0.3659(1) 0.88(4) 1. 0
Ca2 Ca0+ 8 j 0.36159(7) 0.2819(1) 0.2275(1) 0.88(4) 1. 0
Ca3 Ca0+ 4 i 0.1969(1) 0 0.0851(2) 1.06(6) 1. 0
Ca4 Ca0+ 4 i 0.5036(1) 0 0.2024(2) 0.89(6) 1. 0
Ca5 Ca0+ 2 c 0 0 0.5 1.08(9) 1. 0
Al1 Al0+ 8 j 0.1581(1) 0.3653(2) 0.0827(2) 0.90(6) 1. 0
Al2 Al0+ 4 i 0.0013(2) 0 0.1578(3) 0.79(8) 1. 0
Al3 Al0+ 4 i 0.2586(2) 0 0.6548(3) 0.86(8) 1. 0
Al4 Al0+ 4 i 0.3398(2) 0 0.4311(3) 1.02(9) 1. 0
Al5 Al0+ 4 h 0 0.3542(2) 0.5 0.84(8) 1. 0
Al6 Al0+ 4 g 0 0.2249(2) 0 0.92(8) 1. 0
loop_
_atom_site_aniso_label
_atom_site_aniso_type_symbol
_atom_site_aniso_U_11
_atom_site_aniso_U_22
_atom_site_aniso_U_33
_atom_site_aniso_U_12
_atom_site_aniso_U_13
_atom_site_aniso_U_23
Ca1 Ca0+ 0.0129(5) 0.0100(6) 0.0109(6) -0.0011(5) 0.0041(5) -0.0008(5)
Ca2 Ca0+ 0.0095(5) 0.0117(6) 0.0118(6) 0.0015(5) 0.0023(4) 0.0013(4)
Ca3 Ca0+ 0.0104(8) 0.019(1) 0.0095(8) 0. 0.0015(7) 0.
Ca4 Ca0+ 0.0122(8) 0.0113(8) 0.0112(8) 0. 0.0047(7) 0.
Ca5 Ca0+ 0.017(1) 0.014(1) 0.013(1) 0. 0.008(1) 0.
Al1 Al0+ 0.0105(8) 0.0120(8) 0.0120(9) -0.0003(7) 0.0037(7) -0.0013(7)
Al2 Al0+ 0.011(1) 0.009(1) 0.010(1) 0. 0.003(1) 0.
Al3 Al0+ 0.011(1) 0.010(1) 0.012(1) 0. 0.004(1) 0.
Al4 Al0+ 0.012(1) 0.014(1) 0.013(1) 0. 0.004(1) 0.
Al5 Al0+ 0.009(1) 0.011(1) 0.012(1) 0. 0.003(1) 0.
Al6 Al0+ 0.013(1) 0.007(1) 0.015(1) 0. 0.003(1) 0.
#End of TTdata_165239-ICSD