
data_16550-ICSD
_database_code_ICSD 16550
_audit_creation_date 1980-01-01
_audit_update_record 2000-07-15
_chemical_name_systematic 'Copper(I) sulfide'
_chemical_formula_structural 'Cu2 S'
_chemical_formula_sum 'Cu2 S1'
_chemical_name_mineral Chalcocite-Q
_exptl_crystal_density_diffrn 5.87
_cell_length_a 3.9962
_cell_length_b 3.9962
_cell_length_c 11.287
_cell_angle_alpha 90.
_cell_angle_beta 90.
_cell_angle_gamma 90.
_cell_volume 180.25
_cell_formula_units_Z 4
_symmetry_space_group_name_H-M 'P 43 21 2'
_symmetry_Int_Tables_number 96
loop_
_symmetry_equiv_pos_site_id
_symmetry_equiv_pos_as_xyz
1 'x+1/2, -y+1/2, -z+1/4'
2 '-x+1/2, y+1/2, -z+3/4'
3 '-y, -x, -z+1/2'
4 'y, x, -z'
5 'y+1/2, -x+1/2, z+1/4'
6 '-y+1/2, x+1/2, z+3/4'
7 '-x, -y, z+1/2'
8 'x, y, z'
loop_
_atom_type_symbol
_atom_type_oxidation_number
S2- -2
Cu1+ 1
loop_
_atom_site_label
_atom_site_type_symbol
_atom_site_symmetry_multiplicity
_atom_site_Wyckoff_symbol
_atom_site_fract_x
_atom_site_fract_y
_atom_site_fract_z
_atom_site_B_iso_or_equiv
_atom_site_occupancy
_atom_site_attached_hydrogens
S1 S2- 4 a 0 0 0 . 1. 0
Cu1 Cu1+ 8 b 0.34 0 0.165 . 1. 0
