
#(C) 2017 by FIZ Karlsruhe - Leibniz Institute for Information Infrastructure.  All rights reserved.
data_16606-ICSD
_database_code_ICSD 16606
_audit_creation_date 1984-09-04
_audit_update_record 2010-02-01
_chemical_name_systematic 'Niobium telluride (3/4)'
_chemical_formula_structural 'Nb3 Te4'
_chemical_formula_sum 'Nb3 Te4'
_chemical_name_structure_type Nb3Te4
_exptl_crystal_density_diffrn 7.29
_publ_section_title 'The crystal structures of Nb3 Se4 and Nb3 Te4'
loop_
_citation_id
_citation_journal_full
_citation_year
_citation_journal_volume
_citation_page_first
_citation_page_last
_citation_journal_id_ASTM
primary 'Acta Crystallographica (1,1948-23,1967)' 1964 17 1568 1572 ACCRA9
loop_
_publ_author_name
'Selte, K.'
'Kjekshus, A.'
_cell_length_a 10.671
_cell_length_b 10.671
_cell_length_c 3.6468
_cell_angle_alpha 90.
_cell_angle_beta 90.
_cell_angle_gamma 120.
_cell_volume 359.63
_cell_formula_units_Z 2
_symmetry_space_group_name_H-M 'P 63/m'
_symmetry_Int_Tables_number 176
_refine_ls_R_factor_all 0.088
loop_
_symmetry_equiv_pos_site_id
_symmetry_equiv_pos_as_xyz
1 '-x+y, -x, -z+1/2'
2 '-y, x-y, -z+1/2'
3 'x, y, -z+1/2'
4 'x-y, x, -z'
5 'y, -x+y, -z'
6 '-x, -y, -z'
7 'x-y, x, z+1/2'
8 'y, -x+y, z+1/2'
9 '-x, -y, z+1/2'
10 '-x+y, -x, z'
11 '-y, x-y, z'
12 'x, y, z'
loop_
_atom_type_symbol
_atom_type_oxidation_number
Nb0+ 0
Te0+ 0
loop_
_atom_site_label
_atom_site_type_symbol
_atom_site_symmetry_multiplicity
_atom_site_Wyckoff_symbol
_atom_site_fract_x
_atom_site_fract_y
_atom_site_fract_z
_atom_site_B_iso_or_equiv
_atom_site_occupancy
_atom_site_attached_hydrogens
Nb1 Nb0+ 6 h 0.4886 0.1039 0.25 . 1. 0
Te1 Te0+ 2 c 0.6667 0.3333 0.75 . 1. 0
Te2 Te0+ 6 h 0.3389 0.2731 0.25 . 1. 0
#End of TTdata_16606-ICSD