
#(C) 2017 by FIZ Karlsruhe - Leibniz Institute for Information Infrastructure.  All rights reserved.
data_16618-ICSD
_database_code_ICSD 16618
_audit_creation_date 1980-01-01
_audit_update_record 1988-03-29
_chemical_name_systematic 'Indium phosphate'
_chemical_formula_structural 'In P O4'
_chemical_formula_sum 'In1 O4 P1'
_chemical_name_structure_type CrVO4
_exptl_crystal_density_diffrn 4.94
_publ_section_title

;
Crystal Structure of Anhydrous Indium Phosphate and Thallic Phosphate by X-ray
Diffraction
;
loop_
_citation_id
_citation_journal_full
_citation_year
_citation_journal_volume
_citation_page_first
_citation_page_last
_citation_journal_id_ASTM
primary 'Acta Crystallographica (1,1948-23,1967)' 1956 9 113 117 ACCRA9
loop_
_publ_author_name
'Mooney, R.C.L.'
_cell_length_a 5.308
_cell_length_b 7.851
_cell_length_c 6.767
_cell_angle_alpha 90.
_cell_angle_beta 90.
_cell_angle_gamma 90.
_cell_volume 282.
_cell_formula_units_Z 4
_symmetry_space_group_name_H-M 'C m c m'
_symmetry_Int_Tables_number 63
_refine_ls_R_factor_all 0.066
loop_
_symmetry_equiv_pos_site_id
_symmetry_equiv_pos_as_xyz
1 '-x, y, -z+1/2'
2 '-x, -y, z+1/2'
3 '-x, y, z'
4 '-x, -y, -z'
5 'x, -y, z+1/2'
6 'x, y, -z+1/2'
7 'x, -y, -z'
8 'x, y, z'
9 '-x+1/2, y+1/2, -z+1/2'
10 '-x+1/2, -y+1/2, z+1/2'
11 '-x+1/2, y+1/2, z'
12 '-x+1/2, -y+1/2, -z'
13 'x+1/2, -y+1/2, z+1/2'
14 'x+1/2, y+1/2, -z+1/2'
15 'x+1/2, -y+1/2, -z'
16 'x+1/2, y+1/2, z'
loop_
_atom_type_symbol
_atom_type_oxidation_number
In3+ 3
P5+ 5
O2- -2
loop_
_atom_site_label
_atom_site_type_symbol
_atom_site_symmetry_multiplicity
_atom_site_Wyckoff_symbol
_atom_site_fract_x
_atom_site_fract_y
_atom_site_fract_z
_atom_site_B_iso_or_equiv
_atom_site_occupancy
_atom_site_attached_hydrogens
In1 In3+ 4 a 0 0 0 . 1. 0
P1 P5+ 4 c 0 0.36 0.25 . 1. 0
O1 O2- 8 g 0.24 0.475 0.25 . 1. 0
O2 O2- 8 f 0 0.246 0.062 . 1. 0
#End of TTdata_16618-ICSD