
#(C) 2017 by FIZ Karlsruhe - Leibniz Institute for Information Infrastructure.  All rights reserved.
data_1661-ICSD
_database_code_ICSD 1661
_audit_creation_date 1980-01-01
_audit_update_record 2010-02-01
_chemical_name_systematic 'Gold(III) iodide telluride'
_chemical_formula_structural 'Au I Te'
_chemical_formula_sum 'Au1 I1 Te1'
_exptl_crystal_density_diffrn 7.72
_publ_section_title 'The crystal structure of gold telluride iodide Au Te I'
loop_
_citation_id
_citation_journal_full
_citation_year
_citation_journal_volume
_citation_page_first
_citation_page_last
_citation_journal_id_ASTM
primary 'Journal of Solid State Chemistry' 1978 24 367 369 JSSCBI
loop_
_publ_author_name
'Fenner, J.'
'Mootz, D.'
_cell_length_a 7.3130(4)
_cell_length_b 7.6242(4)
_cell_length_c 7.2550(2)
_cell_angle_alpha 90.
_cell_angle_beta 106.263(4)
_cell_angle_gamma 90.
_cell_volume 388.32
_cell_formula_units_Z 4
_symmetry_space_group_name_H-M 'P 1 21/c 1'
_symmetry_Int_Tables_number 14
_refine_ls_R_factor_all 0.055
loop_
_symmetry_equiv_pos_site_id
_symmetry_equiv_pos_as_xyz
1 'x, -y+1/2, z+1/2'
2 '-x, -y, -z'
3 '-x, y+1/2, -z+1/2'
4 'x, y, z'
loop_
_atom_type_symbol
_atom_type_oxidation_number
Au3+ 3
Te2- -2
I1- -1
loop_
_atom_site_label
_atom_site_type_symbol
_atom_site_symmetry_multiplicity
_atom_site_Wyckoff_symbol
_atom_site_fract_x
_atom_site_fract_y
_atom_site_fract_z
_atom_site_B_iso_or_equiv
_atom_site_occupancy
_atom_site_attached_hydrogens
Au1 Au3+ 4 e 0.4654(1) 0.1395(1) 0.2370(1) . 1. 0
Te1 Te2- 4 e 0.6720(2) 0.1301(2) -.0090(1) . 1. 0
I1 I1- 4 e 0.1758(2) 0.0857(2) 0.3892(2) . 1. 0
loop_
_atom_site_aniso_label
_atom_site_aniso_type_symbol
_atom_site_aniso_U_11
_atom_site_aniso_U_22
_atom_site_aniso_U_33
_atom_site_aniso_U_12
_atom_site_aniso_U_13
_atom_site_aniso_U_23
Au1 Au3+ 0.0217(3) 0.0211(3) 0.0137(3) -.0016(3) 0.0079(2) -.0015(3)
Te1 Te2- 0.0178(5) 0.0226(5) 0.0129(4) -.0001(5) 0.0051(4) -.0013(4)
I1 I1- 0.0200(6) 0.0358(7) 0.0229(5) -.0008(5) 0.0096(5) 0.0019(5)
#End of TTdata_1661-ICSD