
#(C) 2017 by FIZ Karlsruhe - Leibniz Institute for Information Infrastructure.  All rights reserved.
data_166369-ICSD
_database_code_ICSD 166369
_audit_creation_date 2010-08-01
_audit_update_record 2013-08-01
_chemical_name_systematic 'Titanium nickel (3/4)'
_chemical_formula_structural 'Ni4 Ti3'
_chemical_formula_sum 'Ni4 Ti3'
_chemical_name_structure_type Pd4Pu3
_exptl_crystal_density_diffrn 6.74
_cell_measurement_temperature 313.
_publ_section_title

;
Texture and structural refinement using neutron diffraction data from
molybdite (Mo O3) and calcite (Ca C O3) powders and a Ni-rich Ni50.7 Ti49.30
alloy
;
loop_
_citation_id
_citation_journal_full
_citation_year
_citation_journal_volume
_citation_page_first
_citation_page_last
_citation_journal_id_ASTM
primary 'Powder Diffraction' 2009 24 315 326 PODIE2
loop_
_publ_author_name
'Sitepu, H.'
_cell_length_a 6.72075(27)
_cell_length_b 6.72075(27)
_cell_length_c 6.72075(27)
_cell_angle_alpha 113.84
_cell_angle_beta 113.84
_cell_angle_gamma 113.84
_cell_volume 186.6
_cell_formula_units_Z 2
_symmetry_space_group_name_H-M 'R -3 R'
_symmetry_Int_Tables_number 148
_refine_ls_R_factor_all 0.0493
loop_
_symmetry_equiv_pos_site_id
_symmetry_equiv_pos_as_xyz
1 '-z, -x, -y'
2 '-y, -z, -x'
3 '-x, -y, -z'
4 'z, x, y'
5 'y, z, x'
6 'x, y, z'
loop_
_atom_type_symbol
_atom_type_oxidation_number
Ti0+ 0
Ni0+ 0
loop_
_atom_site_label
_atom_site_type_symbol
_atom_site_symmetry_multiplicity
_atom_site_Wyckoff_symbol
_atom_site_fract_x
_atom_site_fract_y
_atom_site_fract_z
_atom_site_B_iso_or_equiv
_atom_site_occupancy
_atom_site_attached_hydrogens
Ti1 Ti0+ 6 f 0.522(12) 0.093(11) 0.253(14) 0.016(5) 1. 0
Ni1 Ni0+ 1 a 0 0 0 0.032(5) 1. 0
Ni2 Ni0+ 1 b 0.5 0.5 0.5 0.032(5) 1. 0
Ni3 Ni0+ 6 f 0.065(7) 0.598(6) 0.762(7) 0.032(5) 1. 0
#End of TTdata_166369-ICSD