
data_16708-ICSD
_database_code_ICSD 16708
_audit_creation_date 1980-01-01
_audit_update_record 2006-04-01
_chemical_name_systematic 'Copper dichromium oxide'
_chemical_formula_structural 'Cu Cr2 O4'
_chemical_formula_sum 'Cr2 Cu1 O4'
_chemical_name_structure_type CdMn2O4
_exptl_crystal_density_diffrn 5.42
_cell_length_a 6.04
_cell_length_b 6.04
_cell_length_c 7.78
_cell_angle_alpha 90.
_cell_angle_beta 90.
_cell_angle_gamma 90.
_cell_volume 283.83
_cell_formula_units_Z 4
_symmetry_space_group_name_H-M 'I -4 2 d'
_symmetry_Int_Tables_number 122
loop_
_symmetry_equiv_pos_site_id
_symmetry_equiv_pos_as_xyz
1 '-y, -x+1/2, z+1/4'
2 'y, -x, -z'
3 'y, x+1/2, z+1/4'
4 '-y, x, -z'
5 'x, -y+1/2, -z+1/4'
6 '-x, -y, z'
7 '-x, y+1/2, -z+1/4'
8 'x, y, z'
9 '-y+1/2, -x, z+3/4'
10 'y+1/2, -x+1/2, -z+1/2'
11 'y+1/2, x, z+3/4'
12 '-y+1/2, x+1/2, -z+1/2'
13 'x+1/2, -y, -z+3/4'
14 '-x+1/2, -y+1/2, z+1/2'
15 '-x+1/2, y, -z+3/4'
16 'x+1/2, y+1/2, z+1/2'
loop_
_atom_type_symbol
_atom_type_oxidation_number
Cu2+ 2
Cr3+ 3
O2- -2
loop_
_atom_site_label
_atom_site_type_symbol
_atom_site_symmetry_multiplicity
_atom_site_Wyckoff_symbol
_atom_site_fract_x
_atom_site_fract_y
_atom_site_fract_z
_atom_site_B_iso_or_equiv
_atom_site_occupancy
_atom_site_attached_hydrogens
Cu1 Cu2+ 4 a 0 0 0 . 1. 0
Cr1 Cr3+ 8 d 0.525 0.25 0.125 . 1. 0
O1 O2- 16 e 0.28 0.028 0.12 . 1. 0
