
#(C) 2017 by FIZ Karlsruhe - Leibniz Institute for Information Infrastructure.  All rights reserved.
data_1671-ICSD
_database_code_ICSD 1671
_audit_creation_date 1980-01-01
_audit_update_record 2012-08-01
_chemical_name_systematic 'Copper tellurate'
_chemical_formula_structural 'Cu (Te O4)'
_chemical_formula_sum 'Cu1 O4 Te1'
_chemical_name_structure_type CuTeO4
_exptl_crystal_density_diffrn 6.34
_publ_section_title 'The crystal structure of Cu Te O4'
loop_
_citation_id
_citation_journal_full
_citation_year
_citation_journal_volume
_citation_page_first
_citation_page_last
_citation_journal_id_ASTM
primary 'Acta Crystallographica B (24,1968-38,1982)' 1978 34 1450 1453 ACBCAR
loop_
_publ_author_name
'Falck, L.'
'Lindqvist, O.'
'Mark, W.'
_cell_length_a 5.500(2)
_cell_length_b 10.327(7)
_cell_length_c 4.704(2)
_cell_angle_alpha 90.
_cell_angle_beta 90.0(1)
_cell_angle_gamma 90.
_cell_volume 267.18
_cell_formula_units_Z 4
_symmetry_space_group_name_H-M 'P 1 21/n 1'
_symmetry_Int_Tables_number 14
_refine_ls_R_factor_all 0.048
loop_
_symmetry_equiv_pos_site_id
_symmetry_equiv_pos_as_xyz
1 '-x+1/2, y+1/2, -z+1/2'
2 '-x, -y, -z'
3 'x+1/2, -y+1/2, z+1/2'
4 'x, y, z'
loop_
_atom_type_symbol
_atom_type_oxidation_number
Te6+ 6
Cu2+ 2
O2- -2
loop_
_atom_site_label
_atom_site_type_symbol
_atom_site_symmetry_multiplicity
_atom_site_Wyckoff_symbol
_atom_site_fract_x
_atom_site_fract_y
_atom_site_fract_z
_atom_site_B_iso_or_equiv
_atom_site_occupancy
_atom_site_attached_hydrogens
Te1 Te6+ 4 e 0.2963(2) 0.2489(6) 0.0166(2) 0.23 1. 0
Cu1 Cu2+ 2 a 0 0 0 0.39 1. 0
Cu2 Cu2+ 2 c 0.5 0 0.5 0.55 1. 0
O1 O2- 4 e 0.537(4) 0.320(2) 0.768(4) 0.4 1. 0
O2 O2- 4 e 0.535(4) 0.173(2) 0.267(4) 0.7 1. 0
O3 O2- 4 e 0.271(3) 0.416(1) 0.187(3) 1. 1. 0
O4 O2- 4 e 0.271(4) 0.088(2) -.164(4) 0.2 1. 0
#End of TTdata_1671-ICSD