
data_16752-ICSD
_database_code_ICSD 16752
_audit_creation_date 1980-01-01
_audit_update_record 2006-04-01
_chemical_name_systematic 'Silicon nitride - alpha'
_chemical_formula_structural 'Si3 N4'
_chemical_formula_sum 'N4 Si3'
_exptl_crystal_density_diffrn 3.19
_cell_length_a 7.753(4)
_cell_length_b 7.753
_cell_length_c 5.618(4)
_cell_angle_alpha 90.
_cell_angle_beta 90.
_cell_angle_gamma 120.
_cell_volume 292.45
_cell_formula_units_Z 4
_symmetry_space_group_name_H-M 'P 3 1 c'
_symmetry_Int_Tables_number 159
loop_
_symmetry_equiv_pos_site_id
_symmetry_equiv_pos_as_xyz
1 '-x, -x+y, z+1/2'
2 'x-y, -y, z+1/2'
3 'y, x, z+1/2'
4 '-x+y, -x, z'
5 '-y, x-y, z'
6 'x, y, z'
loop_
_atom_type_symbol
_atom_type_oxidation_number
N3- -3
Si4+ 4
loop_
_atom_site_label
_atom_site_type_symbol
_atom_site_symmetry_multiplicity
_atom_site_Wyckoff_symbol
_atom_site_fract_x
_atom_site_fract_y
_atom_site_fract_z
_atom_site_B_iso_or_equiv
_atom_site_occupancy
_atom_site_attached_hydrogens
N1 N3- 2 a 0 0 0 . 1. 0
N2 N3- 2 a 0 0 0.75 . 1. 0
N3 N3- 6 c 0.3333 0 0 . 1. 0
N4 N3- 6 c 0.3333 0.3333 0.25 . 1. 0
Si1 Si4+ 6 c 0.5 0.0833 0.25 . 1. 0
Si2 Si4+ 6 c 0.1667 0.25 0 . 1. 0
