
#(C) 2017 by FIZ Karlsruhe - Leibniz Institute for Information Infrastructure.  All rights reserved.
data_167948-ICSD
_database_code_ICSD 167948
_audit_creation_date 2011-02-01
_audit_update_record 2014-08-01
_chemical_name_systematic 'Lanthanum ruthenium aluminide (5/3/2)'
_chemical_formula_structural 'La5 Ru3 Al2'
_chemical_formula_sum 'Al2 La5 Ru3'
_chemical_name_structure_type Al2La5Ru3
_exptl_crystal_density_diffrn 7.08
_publ_section_title

;
New ternary intermetallics RE5 Ru3 Al2 (RE = La, Ce, Pr): synthesis, crystal
structures, magnetic and electric properties
;
loop_
_citation_id
_citation_journal_full
_citation_year
_citation_journal_volume
_citation_page_first
_citation_page_last
_citation_journal_id_ASTM
primary 'Materials Research Bulletin' 2010 45 993 999 MRBUAC
loop_
_publ_author_name
'Murashova, E.V.'
'Tursina, A.I.'
'Bukhan'ko, N.G.'
'Nesterenko, S.N.'
'Kurenbaeva, Zh.M.'
'Seropegin, Y.D.'
'Noel, H.'
'Potel, M.'
'Roisnel, T.'
'Kaczorowski, D.'
_cell_length_a 9.95419(6)
_cell_length_b 9.95419(6)
_cell_length_c 9.95419(6)
_cell_angle_alpha 90.
_cell_angle_beta 90.
_cell_angle_gamma 90.
_cell_volume 986.32
_cell_formula_units_Z 4
_symmetry_space_group_name_H-M 'I 21 3'
_symmetry_Int_Tables_number 199
_refine_ls_R_factor_all 0.032
loop_
_symmetry_equiv_pos_site_id
_symmetry_equiv_pos_as_xyz
1 '-z+1/2, -x, y+1/2'
2 '-y+1/2, -z, x+1/2'
3 '-x+1/2, -y, z+1/2'
4 '-z, x+1/2, -y+1/2'
5 '-y, z+1/2, -x+1/2'
6 '-x, y+1/2, -z+1/2'
7 'z+1/2, -x+1/2, -y'
8 'y+1/2, -z+1/2, -x'
9 'x+1/2, -y+1/2, -z'
10 'z, x, y'
11 'y, z, x'
12 'x, y, z'
13 '-z, -x+1/2, y'
14 '-y, -z+1/2, x'
15 '-x, -y+1/2, z'
16 '-z+1/2, x, -y'
17 '-y+1/2, z, -x'
18 '-x+1/2, y, -z'
19 'z, -x, -y+1/2'
20 'y, -z, -x+1/2'
21 'x, -y, -z+1/2'
22 'z+1/2, x+1/2, y+1/2'
23 'y+1/2, z+1/2, x+1/2'
24 'x+1/2, y+1/2, z+1/2'
loop_
_atom_type_symbol
_atom_type_oxidation_number
La0+ 0
Ru0+ 0
Al0+ 0
loop_
_atom_site_label
_atom_site_type_symbol
_atom_site_symmetry_multiplicity
_atom_site_Wyckoff_symbol
_atom_site_fract_x
_atom_site_fract_y
_atom_site_fract_z
_atom_site_B_iso_or_equiv
_atom_site_occupancy
_atom_site_attached_hydrogens
La1 La0+ 12 b 0.4380(2) 0 0.25 0.0031(10) 1. 0
La2 La0+ 8 a 0.10580(18) 0.10580(18) 0.10580(18) 0.0093(16) 1. 0
Ru1 Ru0+ 12 b 0.8674(3) 0 0.25 0.0095(13) 1. 0
Al1 Al0+ 8 a 0.2888(9) 0.2888(9) 0.2888(9) 0.020(7) 1. 0
#End of TTdata_167948-ICSD