
#(C) 2017 by FIZ Karlsruhe - Leibniz Institute for Information Infrastructure.  All rights reserved.
data_16818-ICSD
_database_code_ICSD 16818
_audit_creation_date 1980-01-01
_audit_update_record 2006-04-01
_chemical_name_systematic 'Silicon nitride - beta'
_chemical_formula_structural 'Si3 N4'
_chemical_formula_sum 'N4 Si3'
_chemical_name_structure_type Nb3Te4
_exptl_crystal_density_diffrn 3.19
_publ_section_title 'Crystal structures of silicon nitride'
loop_
_citation_id
_citation_journal_full
_citation_year
_citation_journal_volume
_citation_page_first
_citation_page_last
_citation_journal_id_ASTM
primary 'Nature (London)' 1957 180 332 333 NATUAS
loop_
_publ_author_name
'Hardie, D.'
'Jack, K.H.'
_cell_length_a 7.608
_cell_length_b 7.608
_cell_length_c 2.9107(5)
_cell_angle_alpha 90.
_cell_angle_beta 90.
_cell_angle_gamma 120.
_cell_volume 145.9
_cell_formula_units_Z 2
_symmetry_space_group_name_H-M 'P 63/m'
_symmetry_Int_Tables_number 176
loop_
_symmetry_equiv_pos_site_id
_symmetry_equiv_pos_as_xyz
1 '-x+y, -x, -z+1/2'
2 '-y, x-y, -z+1/2'
3 'x, y, -z+1/2'
4 'x-y, x, -z'
5 'y, -x+y, -z'
6 '-x, -y, -z'
7 'x-y, x, z+1/2'
8 'y, -x+y, z+1/2'
9 '-x, -y, z+1/2'
10 '-x+y, -x, z'
11 '-y, x-y, z'
12 'x, y, z'
loop_
_atom_type_symbol
_atom_type_oxidation_number
N3- -3
Si4+ 4
loop_
_atom_site_label
_atom_site_type_symbol
_atom_site_symmetry_multiplicity
_atom_site_Wyckoff_symbol
_atom_site_fract_x
_atom_site_fract_y
_atom_site_fract_z
_atom_site_B_iso_or_equiv
_atom_site_occupancy
_atom_site_attached_hydrogens
N1 N3- 2 c 0.3333 0.6667 0.25 . 1. 0
N2 N3- 6 h 0.333 0.033 0.25 . 1. 0
Si1 Si4+ 6 h 0.172 -.231 0.25 . 1. 0
#End of TTdata_16818-ICSD