
#(C) 2017 by FIZ Karlsruhe - Leibniz Institute for Information Infrastructure.  All rights reserved.
data_16889-ICSD
_database_code_ICSD 16889
_audit_creation_date 1980-01-01
_audit_update_record 2007-08-01
_chemical_name_systematic 'Potassium iodohexaoxotetraarsenate(III)'
_chemical_formula_structural 'K (As4 O6 I)'
_chemical_formula_sum 'As4 I1 K1 O6'
_chemical_name_structure_type KAs4O6Br
_exptl_crystal_density_diffrn 4.23
_publ_section_title

;
Crystal structure of potassium iododiarsenite K As4 O6 I and some analogous
compounds
;
loop_
_citation_id
_citation_journal_full
_citation_year
_citation_journal_volume
_citation_page_first
_citation_page_last
_citation_journal_id_ASTM
primary

;
Lodzkie Towarzystwo Naukowe, Prace Wydzielu 3: Nauk
Matematyczno-Przyrodniczych
; 1964 9 5 24 LTWMAS
loop_
_publ_author_name
'Galdecki, Z.'
'Jozefowicz, E.'
_cell_length_a 5.27(5)
_cell_length_b 5.27(5)
_cell_length_c 9.157(7)
_cell_angle_alpha 90.
_cell_angle_beta 90.
_cell_angle_gamma 120.
_cell_volume 220.24
_cell_formula_units_Z 1
_symmetry_space_group_name_H-M 'P 6/m m m'
_symmetry_Int_Tables_number 191
_refine_ls_R_factor_all 0.118
loop_
_symmetry_equiv_pos_site_id
_symmetry_equiv_pos_as_xyz
1 '-x, -x+y, -z'
2 'x-y, -y, -z'
3 'y, x, -z'
4 '-x+y, -x, -z'
5 '-y, x-y, -z'
6 'x, y, -z'
7 'x, x-y, -z'
8 '-x+y, y, -z'
9 '-y, -x, -z'
10 'x-y, x, -z'
11 'y, -x+y, -z'
12 '-x, -y, -z'
13 'x, x-y, z'
14 '-x+y, y, z'
15 '-y, -x, z'
16 'x-y, x, z'
17 'y, -x+y, z'
18 '-x, -y, z'
19 '-x, -x+y, z'
20 'x-y, -y, z'
21 'y, x, z'
22 '-x+y, -x, z'
23 '-y, x-y, z'
24 'x, y, z'
loop_
_atom_type_symbol
_atom_type_oxidation_number
I1- -1
K1+ 1
As3+ 3
O2- -2
loop_
_atom_site_label
_atom_site_type_symbol
_atom_site_symmetry_multiplicity
_atom_site_Wyckoff_symbol
_atom_site_fract_x
_atom_site_fract_y
_atom_site_fract_z
_atom_site_B_iso_or_equiv
_atom_site_occupancy
_atom_site_attached_hydrogens
I1 I1- 1 a 0 0 0 1.35 1. 0
K1 K1+ 1 b 0 0 0.5 1.35 1. 0
As1 As3+ 4 h 0.3333 0.6667 0.215 1.35 1. 0
O1 O2- 6 i 0.5 0 0.323 1.35 1. 0
#End of TTdata_16889-ICSD