
#(C) 2017 by FIZ Karlsruhe - Leibniz Institute for Information Infrastructure.  All rights reserved.
data_169702-ICSD
_database_code_ICSD 169702
_audit_creation_date 2011-08-01
_audit_update_record 2013-08-01
_chemical_name_systematic 'Pentasodium gallium digermanide'
_chemical_formula_structural 'Na5 (Ga Ge2)'
_chemical_formula_sum 'Ga1 Ge2 Na5'
_exptl_crystal_density_diffrn 2.57
_cell_measurement_temperature 173.
_publ_section_title

;
Na5 Ga Ge2: a new intermetallic compound with an isolated linear anion of (Ga
Ge2)(5-)
;
loop_
_citation_id
_citation_journal_full
_citation_year
_citation_journal_volume
_citation_page_first
_citation_page_last
_citation_journal_id_ASTM
primary 'Bulletin of the Korean Chemical Society' 2010 31 1797 1799 BKCSDE
loop_
_publ_author_name
'Park, Dong Gon'
'di Salvo, F.J.'
_cell_length_a 5.6218(6)
_cell_length_b 9.270(1)
_cell_length_c 8.2617(9)
_cell_angle_alpha 90.
_cell_angle_beta 97.981(3)
_cell_angle_gamma 90.
_cell_volume 426.38
_cell_formula_units_Z 2
_symmetry_space_group_name_H-M 'P 1 21/m 1'
_symmetry_Int_Tables_number 11
_refine_ls_R_factor_all 0.0306
loop_
_symmetry_equiv_pos_site_id
_symmetry_equiv_pos_as_xyz
1 'x, -y+1/2, z'
2 '-x, -y, -z'
3 '-x, y+1/2, -z'
4 'x, y, z'
loop_
_atom_type_symbol
_atom_type_oxidation_number
Ge0+ 0
Ga0+ 0
Na0+ 0
loop_
_atom_site_label
_atom_site_type_symbol
_atom_site_symmetry_multiplicity
_atom_site_Wyckoff_symbol
_atom_site_fract_x
_atom_site_fract_y
_atom_site_fract_z
_atom_site_B_iso_or_equiv
_atom_site_occupancy
_atom_site_attached_hydrogens
Ge1 Ge0+ 2 e 0.5397(1) 0.25 0.3544(1) 0.011(1) 1. 0
Ge2 Ge0+ 2 e 0.0672(1) 0.25 0.8389(1) 0.013(1) 1. 0
Ga1 Ga0+ 2 e 0.3107(1) 0.25 0.0932(1) 0.011(1) 1. 0
Na1 Na0+ 4 f 0.4057(3) 0.5774(2) 0.3107(2) 0.031(1) 1. 0
Na2 Na0+ 4 f 0.8201(3) 0.0726(2) 0.1159(2) 0.021(1) 1. 0
Na3 Na0+ 2 e 0.0659(4) 0.25 0.4823(2) 0.030(1) 1. 0
loop_
_atom_site_aniso_label
_atom_site_aniso_type_symbol
_atom_site_aniso_U_11
_atom_site_aniso_U_22
_atom_site_aniso_U_33
_atom_site_aniso_U_12
_atom_site_aniso_U_13
_atom_site_aniso_U_23
Ge1 Ge0+ 0.010(1) 0.014(1) 0.010(1) 0. 0.002(1) 0.
Ge2 Ge0+ 0.015(1) 0.014(1) 0.011(1) 0. 0.000(1) 0.
Ga1 Ga0+ 0.009(1) 0.013(1) 0.012(1) 0. 0.001(1) 0.
Na1 Na0+ 0.037(1) 0.023(1) 0.029(1) 0.012(1) -0.007(1) -0.010(1)
Na2 Na0+ 0.022(1) 0.018(1) 0.026(1) 0.001(1) 0.012(1) -0.002(1)
Na3 Na0+ 0.011(1) 0.065(2) 0.016(1) 0. 0.004(1) 0.
#End of TTdata_169702-ICSD