
#(C) 2017 by FIZ Karlsruhe - Leibniz Institute for Information Infrastructure.  All rights reserved.
data_170029-ICSD
_database_code_ICSD 170029
_audit_creation_date 2005-10-01
_audit_update_record 2008-08-01
_chemical_name_systematic 'Cadmium oxalate - beta'
_chemical_formula_structural 'Cd (C2 O4)'
_chemical_formula_sum 'C2 Cd1 O4'
_chemical_name_structure_type ZnC2O4
_exptl_crystal_density_diffrn 4.08
_publ_section_title 'beta-Cd C2 O4'
loop_
_citation_id
_citation_journal_full
_citation_year
_citation_journal_volume
_citation_page_first
_citation_page_last
_citation_journal_id_ASTM
primary 'Acta Crystallographica, Section C: Crystal Structure Communications'
2001 57 1012 1013 ACSCEE
loop_
_publ_author_name
'Jeanneau, E.'
'Audebrand, N.'
'Louer, D.'
_cell_length_a 5.8260(5)
_cell_length_b 5.2520(7)
_cell_length_c 5.8320(7)
_cell_angle_alpha 90
_cell_angle_beta 113.86(2)
_cell_angle_gamma 90
_cell_volume 163.2
_cell_formula_units_Z 2
_symmetry_space_group_name_H-M 'P 1 21/n 1'
_symmetry_Int_Tables_number 14
_refine_ls_R_factor_all 0.032
loop_
_symmetry_equiv_pos_site_id
_symmetry_equiv_pos_as_xyz
1 '-x+1/2, y+1/2, -z+1/2'
2 '-x, -y, -z'
3 'x+1/2, -y+1/2, z+1/2'
4 'x, y, z'
loop_
_atom_type_symbol
_atom_type_oxidation_number
Cd2+ 2
O2- -2
C3+ 3
loop_
_atom_site_label
_atom_site_type_symbol
_atom_site_symmetry_multiplicity
_atom_site_Wyckoff_symbol
_atom_site_fract_x
_atom_site_fract_y
_atom_site_fract_z
_atom_site_B_iso_or_equiv
_atom_site_occupancy
_atom_site_attached_hydrogens
Cd1 Cd2+ 2 a 0 0 0 .01316(11) 1 0
O1 O2- 4 e -.1107(3) .2305(3) .2625(3) .0161(3) 1 0
O2 O2- 4 e -.1786(3) .1954(3) .6104(3) .0149(3) 1 0
C1 C3+ 4 e -.0832(4) .1218(4) .4619(4) .0122(4) 1 0
loop_
_atom_site_aniso_label
_atom_site_aniso_type_symbol
_atom_site_aniso_U_11
_atom_site_aniso_U_22
_atom_site_aniso_U_33
_atom_site_aniso_U_12
_atom_site_aniso_U_13
_atom_site_aniso_U_23
Cd1 Cd2+ .01759(16) .01449(16) .00899(16) -.00281(7) .00702(11) -.00155(7)
O1 O2- .0200(8) .0181(8) .0122(7) .0038(6) .0085(6) .0034(6)
O2 O2- .0172(8) .0173(8) .0121(7) .0059(6) .0079(6) .0019(6)
C1 C3+ .01759(16) .01449(16) .00899(16) -.00281(7) .00702(11) -.00155(7)
#End of TTdata_170029-ICSD