
#(C) 2017 by FIZ Karlsruhe - Leibniz Institute for Information Infrastructure.  All rights reserved.
data_170136-ICSD
_database_code_ICSD 170136
_audit_creation_date 2006-04-01
_chemical_name_systematic 'Copper manganese vanadate'
_chemical_formula_structural 'Cu Mn V O4'
_chemical_formula_sum 'Cu1 Mn1 O4 V1'
_chemical_name_structure_type Na2CrO4
_exptl_crystal_density_diffrn 4.75
_publ_section_title

;
Synthesis, crystal structure, magnetic properties, and electronic structure of
the new ternary vanadate Cu Mn C O4
;
loop_
_citation_id
_citation_journal_full
_citation_year
_citation_journal_volume
_citation_page_first
_citation_page_last
_citation_journal_id_ASTM
primary 'Inorganic Chemistry' 2005 44 3087 3093 INOCAJ
loop_
_publ_author_name
'Yahia, H.B.'
'Gaudin, E.'
'Darriet, J.'
'Banks, E.'
'Kremer, R.K.'
'Villesuzanne, A.'
'Whangbo Myunghwan'
_cell_length_a 5.787(2)
_cell_length_b 8.807(3)
_cell_length_c 6.410(2)
_cell_angle_alpha 90
_cell_angle_beta 90
_cell_angle_gamma 90
_cell_volume 326.69
_cell_formula_units_Z 4
_symmetry_space_group_name_H-M 'C m c m'
_symmetry_Int_Tables_number 63
_refine_ls_R_factor_all 0.0356
loop_
_symmetry_equiv_pos_site_id
_symmetry_equiv_pos_as_xyz
1 '-x, y, -z+1/2'
2 '-x, -y, z+1/2'
3 '-x, y, z'
4 '-x, -y, -z'
5 'x, -y, z+1/2'
6 'x, y, -z+1/2'
7 'x, -y, -z'
8 'x, y, z'
9 '-x+1/2, y+1/2, -z+1/2'
10 '-x+1/2, -y+1/2, z+1/2'
11 '-x+1/2, y+1/2, z'
12 '-x+1/2, -y+1/2, -z'
13 'x+1/2, -y+1/2, z+1/2'
14 'x+1/2, y+1/2, -z+1/2'
15 'x+1/2, -y+1/2, -z'
16 'x+1/2, y+1/2, z'
loop_
_atom_type_symbol
_atom_type_oxidation_number
Cu1+ 1
Mn2+ 2
V5+ 5
O2- -2
loop_
_atom_site_label
_atom_site_type_symbol
_atom_site_symmetry_multiplicity
_atom_site_Wyckoff_symbol
_atom_site_fract_x
_atom_site_fract_y
_atom_site_fract_z
_atom_site_B_iso_or_equiv
_atom_site_occupancy
_atom_site_attached_hydrogens
Cu1 Cu1+ 4 c 0 0.32230(13) 0.75 0.0291(3) 1 0
Mn1 Mn2+ 4 a 0 0 0.5 0.0094(2) 1 0
V1 V5+ 4 c 0 0.64184(10) 0.75 0.0075(2) 1 0
O1 O2- 8 g 0.2473(5) 0.4748(3) 0.25 0.0115(7) 1 0
O2 O2- 8 f 0 0.2438(3) 0.4625(4) 0.0131(7) 1 0
loop_
_atom_site_aniso_label
_atom_site_aniso_type_symbol
_atom_site_aniso_U_11
_atom_site_aniso_U_22
_atom_site_aniso_U_33
_atom_site_aniso_U_12
_atom_site_aniso_U_13
_atom_site_aniso_U_23
Cu1 Cu1+ 0.0472(6) 0.0266(5) 0.0135(4) 0 0 0
Mn1 Mn2+ 0.0098(4) 0.0114(4) 0.0069(3) 0 0 -0.0001(2)
V1 V5+ 0.0073(4) 0.0088(4) 0.0063(3) 0 0 0
O1 O2- 0.0098(12) 0.0155(12) 0.0091(11) -0.0012(9) 0 0
O2 O2- 0.0143(13) 0.0138(13) 0.0112(10) 0 0 0.0005(10)
#End of TTdata_170136-ICSD