
#(C) 2017 by FIZ Karlsruhe - Leibniz Institute for Information Infrastructure.  All rights reserved.
data_17063-ICSD
_database_code_ICSD 17063
_audit_creation_date 1982-12-31
_chemical_name_systematic 'Magnesium dichloride - beta'
_chemical_formula_structural 'Mg Cl2'
_chemical_formula_sum 'Cl2 Mg1'
_chemical_name_structure_type CdI2
_exptl_crystal_density_diffrn 2.32
_publ_section_title

;
A new layer structure of Mg Cl2 with hexagonal close packing of the chlorine
atoms
;
loop_
_citation_id
_citation_journal_full
_citation_year
_citation_journal_volume
_citation_page_first
_citation_page_last
_citation_journal_id_ASTM
primary 'Zeitschrift fuer Kristallographie (1979-2010)' 1982 159 297 302 ZEKRDZ
loop_
_publ_author_name
'Bassi, I.W.'
'Polato, F.'
'Calcaterra, M.'
'Bart, J.C.J.'
_cell_length_a 3.641(3)
_cell_length_b 3.641(3)
_cell_length_c 5.927(6)
_cell_angle_alpha 90.
_cell_angle_beta 90.
_cell_angle_gamma 120.
_cell_volume 68.05
_cell_formula_units_Z 1
_symmetry_space_group_name_H-M 'P -3 m 1'
_symmetry_Int_Tables_number 164
loop_
_symmetry_equiv_pos_site_id
_symmetry_equiv_pos_as_xyz
1 'x-y, -y, -z'
2 '-x, -x+y, -z'
3 'y, x, -z'
4 'x-y, x, -z'
5 'y, -x+y, -z'
6 '-x, -y, -z'
7 '-x+y, y, z'
8 'x, x-y, z'
9 '-y, -x, z'
10 '-x+y, -x, z'
11 '-y, x-y, z'
12 'x, y, z'
loop_
_atom_type_symbol
_atom_type_oxidation_number
Mg2+ 2
Cl1- -1
loop_
_atom_site_label
_atom_site_type_symbol
_atom_site_symmetry_multiplicity
_atom_site_Wyckoff_symbol
_atom_site_fract_x
_atom_site_fract_y
_atom_site_fract_z
_atom_site_B_iso_or_equiv
_atom_site_occupancy
_atom_site_attached_hydrogens
Mg1 Mg2+ 1 a 0 0 0 . 1. 0
Cl1 Cl1- 2 d 0.3333 0.6667 0.23 . 1. 0
#End of TTdata_17063-ICSD