
#(C) 2017 by FIZ Karlsruhe - Leibniz Institute for Information Infrastructure.  All rights reserved.
data_171068-ICSD
_database_code_ICSD 171068
_audit_creation_date 2006-04-01
_chemical_name_systematic 'Iron(III) hydroxide sulfate'
_chemical_formula_structural 'Fe (O H) S O4'
_chemical_formula_sum 'H1 Fe1 O5 S1'
_exptl_crystal_density_diffrn 3.34
_cell_measurement_temperature 493.
_publ_section_title

;
The order-disorder character of Fe O H S O4 obtained from the thermal
decomposition of metahohmannite, Fe(3+)2 (H2 O)4 [O (S O4)2]
;
loop_
_citation_id
_citation_journal_full
_citation_year
_citation_journal_volume
_citation_page_first
_citation_page_last
_citation_journal_id_ASTM
primary 'American Mineralogist' 2005 90 679 686 AMMIAY
loop_
_publ_author_name
'Ventruti, G.'
'Scordari, F.'
'Schingaro, E.'
'Gualtieri, A.'
'Meneghini, C.'
_cell_length_a 7.33
_cell_length_b 7.14
_cell_length_c 7.39
_cell_angle_alpha 90
_cell_angle_beta 119.7
_cell_angle_gamma 90
_cell_volume 335.96
_cell_formula_units_Z 4
_symmetry_space_group_name_H-M 'P 1 21/c 1'
_symmetry_Int_Tables_number 14
loop_
_symmetry_equiv_pos_site_id
_symmetry_equiv_pos_as_xyz
1 'x, -y+1/2, z+1/2'
2 '-x, -y, -z'
3 '-x, y+1/2, -z+1/2'
4 'x, y, z'
loop_
_atom_type_symbol
_atom_type_oxidation_number
Fe3+ 3
S6+ 6
O2- -2
H1+ 1
loop_
_atom_site_label
_atom_site_type_symbol
_atom_site_symmetry_multiplicity
_atom_site_Wyckoff_symbol
_atom_site_fract_x
_atom_site_fract_y
_atom_site_fract_z
_atom_site_B_iso_or_equiv
_atom_site_occupancy
_atom_site_attached_hydrogens
Fe1 Fe3+ 2 a 0 0 0 . 1. 0
Fe2 Fe3+ 2 b 0.5 0.5 0.5 . 1. 0
S1 S6+ 4 e 0.25 0.616 0 . 1. 0
O1 O2- 4 e 0.3415 0.5 0.183 . 1. 0
O2 O2- 4 e 0.916 0.27 0 . 1. 0
O3 O2- 4 e 0.584 0.27 0 . 1. 0
O4 O2- 4 e 0.25 0.1 0 . 1. 0
O5 O2- 4 e 0.8415 0. 0.683 . 1. 0
#End of TTdata_171068-ICSD