
#(C) 2017 by FIZ Karlsruhe - Leibniz Institute for Information Infrastructure.  All rights reserved.
data_171216-ICSD
_database_code_ICSD 171216
_audit_creation_date 2006-10-01
_audit_update_record 2008-02-01
_chemical_name_systematic 'Dithallium digold hexaselenodiphosphate(IV)'
_chemical_formula_structural 'Tl2 Au2 (P2 Se6)'
_chemical_formula_sum 'Au2 P2 Se6 Tl2'
_exptl_crystal_density_diffrn 7.18
_cell_measurement_temperature 175.
_publ_section_title

;
Exploring thallium compounds as thermoelectric materials: seventeen new
thallium chalcogenides
;
loop_
_citation_id
_citation_journal_full
_citation_year
_citation_journal_volume
_citation_page_first
_citation_page_last
_citation_journal_id_ASTM
primary 'Chemistry of Materials' 2005 17 2875 2884 CMATEX
loop_
_publ_author_name
'McGuire, M.A.'
'Reynolds, T.K.'
'DiSalvo, F.J.'
_cell_length_a 12.164(2)
_cell_length_b 7.1230(14)
_cell_length_c 8.2703(17)
_cell_angle_alpha 90.
_cell_angle_beta 120.178(3)
_cell_angle_gamma 90.
_cell_volume 619.45
_cell_formula_units_Z 2
_symmetry_space_group_name_H-M 'C 1 2/m 1'
_symmetry_Int_Tables_number 12
_refine_ls_R_factor_all 0.0428
loop_
_symmetry_equiv_pos_site_id
_symmetry_equiv_pos_as_xyz
1 '-x, y, -z'
2 '-x, -y, -z'
3 'x, -y, z'
4 'x, y, z'
5 '-x+1/2, y+1/2, -z'
6 '-x+1/2, -y+1/2, -z'
7 'x+1/2, -y+1/2, z'
8 'x+1/2, y+1/2, z'
loop_
_atom_type_symbol
_atom_type_oxidation_number
Tl1+ 1
Au1+ 1
P4+ 4
Se2- -2
loop_
_atom_site_label
_atom_site_type_symbol
_atom_site_symmetry_multiplicity
_atom_site_Wyckoff_symbol
_atom_site_fract_x
_atom_site_fract_y
_atom_site_fract_z
_atom_site_B_iso_or_equiv
_atom_site_occupancy
_atom_site_attached_hydrogens
Tl1 Tl1+ 4 i 0.28499(5) 0. 0.23229(7) 0.01792(16) 1 0
Au1 Au1+ 4 g 0. 0.23860(6) 0. 0.00921(14) 1 0
P1 P4+ 4 i 0.0303(3) 0. 0.6516(4) 0.0048(5) 1 0
Se1 Se2- 4 i 0.23550(10) 0. 0.81289(17) 0.0110(2) 1 0
Se2 Se2- 8 j 0.06389(8) 0.25692(11) 0.32729(12) 0.0110(2) 1 0
loop_
_atom_site_aniso_label
_atom_site_aniso_type_symbol
_atom_site_aniso_U_11
_atom_site_aniso_U_22
_atom_site_aniso_U_33
_atom_site_aniso_U_12
_atom_site_aniso_U_13
_atom_site_aniso_U_23
Tl1 Tl1+ 0.0180(3) 0.0214(3) 0.0150(3) 0. 0.00879(19) 0.
Au1 Au1+ 0.0135(2) 0.0109(2) 0.0072(2) 0. 0.00815(17) 0.
P1 P4+ 0.0080(12) 0.0040(13) 0.0046(12) 0. 0.0048(10) 0.
Se1 Se2- 0.0073(5) 0.0166(6) 0.0084(5) 0. 0.0035(4) 0.
Se2 Se2- 0.0194(4) 0.0078(4) 0.0078(4) -0.0059(3) 0.0085(3) -0.0008(3)
#End of TTdata_171216-ICSD