
#(C) 2017 by FIZ Karlsruhe - Leibniz Institute for Information Infrastructure.  All rights reserved.
data_171432-ICSD
_database_code_ICSD 171432
_audit_creation_date 2006-10-01
_chemical_name_systematic 'Yttrium barium dicobalt(II,III) oxide'
_chemical_formula_structural 'Y Ba Co2 O5'
_chemical_formula_sum 'Ba1 Co2 O5 Y1'
_chemical_name_structure_type Perovskite_double(layered)#PrBaMn2O5
_exptl_crystal_density_diffrn 6.2
_cell_measurement_temperature 400.
_publ_section_title

;
Low to high spin-state transition induced by charge ordering in
antiferromagnetic Y Ba Co2 O5
;
loop_
_citation_id
_citation_journal_full
_citation_year
_citation_journal_volume
_citation_page_first
_citation_page_last
_citation_journal_id_ASTM
primary 'Physical Review Letters' 2000 84 2969 2972 PRLTAO
loop_
_publ_author_name
'Vogt, T.'
'Woodward, P.M.'
'Karen, P.'
'Hunter, B.A.'
'Henning, P.'
'Moodenbaugh, A.R.'
_cell_length_a 3.89069(2)
_cell_length_b 3.89069(2)
_cell_length_c 7.4994(1)
_cell_angle_alpha 90.
_cell_angle_beta 90.
_cell_angle_gamma 90.
_cell_volume 113.52
_cell_formula_units_Z 1
_symmetry_space_group_name_H-M 'P 4/m m m'
_symmetry_Int_Tables_number 123
_refine_ls_R_factor_all 0.0632
loop_
_symmetry_equiv_pos_site_id
_symmetry_equiv_pos_as_xyz
1 'y, x, -z'
2 '-y, -x, -z'
3 '-y, x, -z'
4 'y, -x, -z'
5 '-x, y, -z'
6 'x, -y, -z'
7 'x, y, -z'
8 '-x, -y, -z'
9 '-y, -x, z'
10 'y, x, z'
11 'y, -x, z'
12 '-y, x, z'
13 'x, -y, z'
14 '-x, y, z'
15 '-x, -y, z'
16 'x, y, z'
loop_
_atom_type_symbol
_atom_type_oxidation_number
Ba2+ 2
Y3+ 3
Co2+ 2.5
O2- -2
loop_
_atom_site_label
_atom_site_type_symbol
_atom_site_symmetry_multiplicity
_atom_site_Wyckoff_symbol
_atom_site_fract_x
_atom_site_fract_y
_atom_site_fract_z
_atom_site_B_iso_or_equiv
_atom_site_occupancy
_atom_site_attached_hydrogens
Ba1 Ba2+ 1 a 0 0 0 . 1. 0
Y1 Y3+ 1 b 0 0 0.5 . 1. 0
Co1 Co2+ 2 h 0.5 0.5 0.2593(4) . 1. 0
O1 O2- 1 c 0.5 0.5 0 . 1. 0
O2 O2- 4 i 0 0.5 0.3122(1) . 1. 0
#End of TTdata_171432-ICSD