
data_172058-ICSD
_database_code_ICSD 172058
_audit_creation_date 2007-04-01
_chemical_name_systematic 'Cobalt mercury tetraselenocyanate'
_chemical_formula_structural 'Co Hg (Se C N)4'
_chemical_formula_sum 'C4 Co1 Hg1 N4 Se4'
_chemical_name_structure_type CoHg(SCN)4
_exptl_crystal_density_diffrn 3.84
_cell_measurement_temperature 213.
_cell_length_a 11.281(3)
_cell_length_b 11.281(3)
_cell_length_c 4.6207(12)
_cell_angle_alpha 90.
_cell_angle_beta 90.
_cell_angle_gamma 90.
_cell_volume 588.03
_cell_formula_units_Z 2
_symmetry_space_group_name_H-M 'I -4'
_symmetry_Int_Tables_number 82
_refine_ls_R_factor_all 0.0512
loop_
_symmetry_equiv_pos_site_id
_symmetry_equiv_pos_as_xyz
1 '-y, x, -z'
2 'y, -x, -z'
3 '-x, -y, z'
4 'x, y, z'
5 '-y+1/2, x+1/2, -z+1/2'
6 'y+1/2, -x+1/2, -z+1/2'
7 '-x+1/2, -y+1/2, z+1/2'
8 'x+1/2, y+1/2, z+1/2'
loop_
_atom_type_symbol
_atom_type_oxidation_number
Hg2+ 2
Se2- -2
Co2+ 2
N3- -3
C4+ 4
loop_
_atom_site_label
_atom_site_type_symbol
_atom_site_symmetry_multiplicity
_atom_site_Wyckoff_symbol
_atom_site_fract_x
_atom_site_fract_y
_atom_site_fract_z
_atom_site_B_iso_or_equiv
_atom_site_occupancy
_atom_site_attached_hydrogens
Hg1 Hg2+ 2 a 0. 0. 0. 0.0221(4) 1 0
Se1 Se2- 8 g -0.12363(12) -0.15290(11) -0.3183(3) 0.0229(4) 1 0
Co1 Co2+ 2 c 0. -0.5 0.25 0.0216(9) 1 0
N1 N3- 8 g -0.0487(10) -0.3636(8) 0.013(4) 0.025(2) 1 0
C1 C4+ 8 g -0.0770(11) -0.2837(13) -0.117(3) 0.025(3) 1 0
loop_
_atom_site_aniso_label
_atom_site_aniso_type_symbol
_atom_site_aniso_U_11
_atom_site_aniso_U_22
_atom_site_aniso_U_33
_atom_site_aniso_U_12
_atom_site_aniso_U_13
_atom_site_aniso_U_23
Hg1 Hg2+ 0.0166(4) 0.0166(4) 0.0330(6) 0. 0. 0.
Se1 Se2- 0.0214(7) 0.0161(7) 0.0311(9) -0.0017(5) -0.0047(5) 0.0001(5)
Co1 Co2+ 0.0146(11) 0.0146(11) 0.036(2) 0. 0. 0.
N1 N3- 0.025(5) 0.012(5) 0.039(6) 0.000(4) 0.001(7) 0.000(6)
C1 C4+ 0.011(6) 0.027(7) 0.038(8) 0.004(5) 0.002(5) -0.007(6)
