
#(C) 2017 by FIZ Karlsruhe - Leibniz Institute for Information Infrastructure.  All rights reserved.
data_172165-ICSD
_database_code_ICSD 172165
_audit_creation_date 2007-04-01
_chemical_name_systematic 'Hafnium dioxide'
_chemical_formula_structural 'Hf O2'
_chemical_formula_sum 'Hf1 O2'
_chemical_name_structure_type Baddeleyite-ZrO2(mP12)
_exptl_crystal_density_diffrn 10.1
_publ_section_title
'Neutron diffraction and MAS NMR of cesium tungstate defect pyrochlores'
loop_
_citation_id
_citation_journal_full
_citation_year
_citation_journal_volume
_citation_page_first
_citation_page_last
_citation_journal_id_ASTM
primary 'Journal of Solid State Chemistry' 2006 179 512 521 JSSCBI
loop_
_publ_author_name
'Whittle, K.R.'
'Lumpkin, G.R.'
'Ashbrook, S.E.'
_cell_length_a 5.1180(19)
_cell_length_b 5.1857(20)
_cell_length_c 5.2841(22)
_cell_angle_alpha 90.
_cell_angle_beta 99.352(31)
_cell_angle_gamma 90.
_cell_volume 138.38
_cell_formula_units_Z 4
_symmetry_space_group_name_H-M 'P 1 21/c 1'
_symmetry_Int_Tables_number 14
loop_
_symmetry_equiv_pos_site_id
_symmetry_equiv_pos_as_xyz
1 'x, -y+1/2, z+1/2'
2 '-x, -y, -z'
3 '-x, y+1/2, -z+1/2'
4 'x, y, z'
loop_
_atom_type_symbol
_atom_type_oxidation_number
Hf4+ 4
O2- -2
loop_
_atom_site_label
_atom_site_type_symbol
_atom_site_symmetry_multiplicity
_atom_site_Wyckoff_symbol
_atom_site_fract_x
_atom_site_fract_y
_atom_site_fract_z
_atom_site_B_iso_or_equiv
_atom_site_occupancy
_atom_site_attached_hydrogens
Hf1 Hf4+ 4 e 0.2755 0.0397 0.208 0.025 1. 0
O1 O2- 4 e 0.0742 0.3316 0.3467 0.025 1. 0
O2 O2- 4 e 0.4487 0.7581 0.4801 0.025 1. 0
#End of TTdata_172165-ICSD