
#(C) 2017 by FIZ Karlsruhe - Leibniz Institute for Information Infrastructure.  All rights reserved.
data_172161-ICSD
_database_code_ICSD 172161
_audit_creation_date 2007-04-01
_chemical_name_systematic 'Zirconium oxide'
_chemical_formula_structural 'Zr O2'
_chemical_formula_sum 'O2 Zr1'
_chemical_name_structure_type Baddeleyite-ZrO2(mP12)
_exptl_crystal_density_diffrn 5.82
_publ_section_title
'Neutron diffraction and MAS NMR of cesium tungstate defect pyrochlores'
loop_
_citation_id
_citation_journal_full
_citation_year
_citation_journal_volume
_citation_page_first
_citation_page_last
_citation_journal_id_ASTM
primary 'Journal of Solid State Chemistry' 2006 179 512 521 JSSCBI
loop_
_publ_author_name
'Whittle, K.R.'
'Lumpkin, G.R.'
'Ashbrook, S.E.'
_cell_length_a 5.1462(20)
_cell_length_b 5.2082(23)
_cell_length_c 5.3155(24)
_cell_angle_alpha 90.
_cell_angle_beta 99.249(35)
_cell_angle_gamma 90.
_cell_volume 140.62
_cell_formula_units_Z 4
_symmetry_space_group_name_H-M 'P 1 21/c 1'
_symmetry_Int_Tables_number 14
loop_
_symmetry_equiv_pos_site_id
_symmetry_equiv_pos_as_xyz
1 'x, -y+1/2, z+1/2'
2 '-x, -y, -z'
3 '-x, y+1/2, -z+1/2'
4 'x, y, z'
loop_
_atom_type_symbol
_atom_type_oxidation_number
Zr4+ 4
O2- -2
loop_
_atom_site_label
_atom_site_type_symbol
_atom_site_symmetry_multiplicity
_atom_site_Wyckoff_symbol
_atom_site_fract_x
_atom_site_fract_y
_atom_site_fract_z
_atom_site_B_iso_or_equiv
_atom_site_occupancy
_atom_site_attached_hydrogens
Zr1 Zr4+ 4 e 0.2754 0.0395 0.2083 0.025 1. 0
O1 O2- 4 e 0.07 0.3317 0.3447 0.025 1. 0
O2 O2- 4 e 0.4496 0.7569 0.4792 0.025 1. 0
#End of TTdata_172161-ICSD