
#(C) 2017 by FIZ Karlsruhe - Leibniz Institute for Information Infrastructure.  All rights reserved.
data_172208-ICSD
_database_code_ICSD 172208
_audit_creation_date 2007-04-01
_chemical_name_systematic 'Tetrasodium calcium hexastannide'
_chemical_formula_structural 'Na4 Ca Sn6'
_chemical_formula_sum 'Ca1 Na4 Sn6'
_exptl_crystal_density_diffrn 4.49
_publ_section_title

;
In search of benzene-like Sn6(6-): synthesis of Na4 Ca Sn6 with interconnected
cyclohexane-like Sn6(6-)
;
loop_
_citation_id
_citation_journal_full
_citation_year
_citation_journal_volume
_citation_page_first
_citation_page_last
_citation_journal_id_ASTM
primary 'Inorganic Chemistry' 2006 45 4478 4483 INOCAJ
loop_
_publ_author_name
'Todorov, I.'
'Sevov, S.C.'
_cell_length_a 10.0486(3)
_cell_length_b 10.0486(3)
_cell_length_c 7.1375(3)
_cell_angle_alpha 90.
_cell_angle_beta 90.
_cell_angle_gamma 120.
_cell_volume 624.15
_cell_formula_units_Z 2
_symmetry_space_group_name_H-M 'P 63/m m c'
_symmetry_Int_Tables_number 194
_refine_ls_R_factor_all 0.0262
loop_
_symmetry_equiv_pos_site_id
_symmetry_equiv_pos_as_xyz
1 'x, x-y, -z+1/2'
2 '-x+y, y, -z+1/2'
3 '-y, -x, -z+1/2'
4 '-x+y, -x, -z+1/2'
5 '-y, x-y, -z+1/2'
6 'x, y, -z+1/2'
7 '-x, -x+y, z+1/2'
8 'x-y, -y, z+1/2'
9 'y, x, z+1/2'
10 'x-y, x, z+1/2'
11 'y, -x+y, z+1/2'
12 '-x, -y, z+1/2'
13 '-x, -x+y, -z'
14 'x-y, -y, -z'
15 'y, x, -z'
16 'x-y, x, -z'
17 'y, -x+y, -z'
18 '-x, -y, -z'
19 'x, x-y, z'
20 '-x+y, y, z'
21 '-y, -x, z'
22 '-x+y, -x, z'
23 '-y, x-y, z'
24 'x, y, z'
loop_
_atom_type_symbol
_atom_type_oxidation_number
Sn0+ 0
Ca0+ 0
Na0+ 0
loop_
_atom_site_label
_atom_site_type_symbol
_atom_site_symmetry_multiplicity
_atom_site_Wyckoff_symbol
_atom_site_fract_x
_atom_site_fract_y
_atom_site_fract_z
_atom_site_B_iso_or_equiv
_atom_site_occupancy
_atom_site_attached_hydrogens
Sn1 Sn0+ 12 k 0.16847(2) 0.83153(2) -0.03927(6) 0.0202(2) 1 0
Ca1 Ca0+ 2 b 0. 1. 0.75 0.0177(6) 1 0
Na1 Na0+ 6 h 0.4598(2) 0.5402(2) 0.25 0.0249(8) 1 0
Na2 Na0+ 2 d 0.3333 0.6667 0.75 0.0299(16) 1 0
loop_
_atom_site_aniso_label
_atom_site_aniso_type_symbol
_atom_site_aniso_U_11
_atom_site_aniso_U_22
_atom_site_aniso_U_33
_atom_site_aniso_U_12
_atom_site_aniso_U_13
_atom_site_aniso_U_23
Sn1 Sn0+ 0.0218(2) 0.0218(2) 0.0207(4) 0.01359(18) -0.00043(9) 0.00043(9)
Ca1 Ca0+ 0.0190(8) 0.0190(8) 0.0151(13) 0.0095(4) 0. 0.
Na1 Na0+ 0.0199(11) 0.0199(11) 0.0267(16) 0.0037(14) 0. 0.
Na2 Na0+ 0.0158(17) 0.0158(17) 0.058(5) 0.0079(8) 0. 0.
#End of TTdata_172208-ICSD