
#(C) 2017 by FIZ Karlsruhe - Leibniz Institute for Information Infrastructure.  All rights reserved.
data_173026-ICSD
_database_code_ICSD 173026
_audit_creation_date 2008-02-01
_chemical_name_systematic 'Pentacalcium triantimonide'
_chemical_formula_structural 'Ca5 Sb3'
_chemical_formula_sum 'Ca5 Sb3'
_chemical_name_structure_type Mn5Si3
_exptl_crystal_density_diffrn 3.79
_publ_section_title

;
Hydrogen in polar intermetallics. Binary pnictides of divalent metals with Mn5
Si3-type structures and their isotypic ternary hydride solutions
;
loop_
_citation_id
_citation_journal_full
_citation_year
_citation_journal_volume
_citation_page_first
_citation_page_last
_citation_journal_id_ASTM
primary 'Chemistry of Materials' 2006 18 4782 4792 CMATEX
loop_
_publ_author_name
'Leon Escamilla, E.A.'
'Corbett, J.D.'
_cell_length_a 9.0312(3)
_cell_length_b 9.0312(3)
_cell_length_c 7.0254(4)
_cell_angle_alpha 90.
_cell_angle_beta 90.
_cell_angle_gamma 120.
_cell_volume 496.24
_cell_formula_units_Z 2
_symmetry_space_group_name_H-M 'P 63/m c m'
_symmetry_Int_Tables_number 193
_refine_ls_R_factor_all 0.025
loop_
_symmetry_equiv_pos_site_id
_symmetry_equiv_pos_as_xyz
1 '-x, -x+y, -z+1/2'
2 'x-y, -y, -z+1/2'
3 'y, x, -z+1/2'
4 '-x+y, -x, -z+1/2'
5 '-y, x-y, -z+1/2'
6 'x, y, -z+1/2'
7 'x, x-y, z+1/2'
8 '-x+y, y, z+1/2'
9 '-y, -x, z+1/2'
10 'x-y, x, z+1/2'
11 'y, -x+y, z+1/2'
12 '-x, -y, z+1/2'
13 'x, x-y, -z'
14 '-x+y, y, -z'
15 '-y, -x, -z'
16 'x-y, x, -z'
17 'y, -x+y, -z'
18 '-x, -y, -z'
19 '-x, -x+y, z'
20 'x-y, -y, z'
21 'y, x, z'
22 '-x+y, -x, z'
23 '-y, x-y, z'
24 'x, y, z'
loop_
_atom_type_symbol
_atom_type_oxidation_number
Ca0+ 0
Sb0+ 0
loop_
_atom_site_label
_atom_site_type_symbol
_atom_site_symmetry_multiplicity
_atom_site_Wyckoff_symbol
_atom_site_fract_x
_atom_site_fract_y
_atom_site_fract_z
_atom_site_B_iso_or_equiv
_atom_site_occupancy
_atom_site_attached_hydrogens
Ca1 Ca0+ 4 d 0.3333 0.6667 0 .97(6) 1. 0
Ca2 Ca0+ 6 g 0.2525(3) 0 0.25 1.6(1) 1. 0
Sb1 Sb0+ 6 g 0.61089(7) 0 0.25 .82(5) 1. 0
loop_
_atom_site_aniso_label
_atom_site_aniso_type_symbol
_atom_site_aniso_U_11
_atom_site_aniso_U_22
_atom_site_aniso_U_33
_atom_site_aniso_U_12
_atom_site_aniso_U_13
_atom_site_aniso_U_23
Ca1 Ca0+ 0.0163(8) 0.0163(9) .006(1) .0082(8) 0 0
Ca2 Ca0+ 0.0161(9) .013(1) .033(1) .0065(1) 0 0
Sb1 Sb0+ 0.0109(5) 0.0102(5) 0.0099(5) .0051(5) 0 0
#End of TTdata_173026-ICSD