
#(C) 2017 by FIZ Karlsruhe - Leibniz Institute for Information Infrastructure.  All rights reserved.
data_173316-ICSD
_database_code_ICSD 173316
_audit_creation_date 2008-08-01
_chemical_name_systematic 'Caesium lanthanum cadmium tritelluride'
_chemical_formula_structural 'Cs La Cd Te3'
_chemical_formula_sum 'Cd1 Cs1 La1 Te3'
_chemical_name_structure_type KCuZrS3
_exptl_crystal_density_diffrn 5.4
_cell_measurement_temperature 293.
_publ_section_title

;
Synthesis, crystal and band structures, and magnetic and optical properties of
new Cs Ln Cd Te3 (Ln = La, Pr, Nd, Sm, Gd-Tm, and Lu)
;
loop_
_citation_id
_citation_journal_full
_citation_year
_citation_journal_volume
_citation_page_first
_citation_page_last
_citation_journal_id_ASTM
primary 'Inorganic Chemistry' 2008 47 855 862 INOCAJ
loop_
_publ_author_name
'Liu Yi'
'Chen Ling'
'Wu Liming'
'Chan, G.-H.'
'van Duyne, R.P.'
_cell_length_a 4.6392(17)
_cell_length_b 16.702(7)
_cell_length_c 12.168(5)
_cell_angle_alpha 90.
_cell_angle_beta 90.
_cell_angle_gamma 90.
_cell_volume 942.82
_cell_formula_units_Z 4
_symmetry_space_group_name_H-M 'C m c m'
_symmetry_Int_Tables_number 63
_refine_ls_R_factor_all 0.0247
loop_
_symmetry_equiv_pos_site_id
_symmetry_equiv_pos_as_xyz
1 '-x, y, -z+1/2'
2 '-x, -y, z+1/2'
3 '-x, y, z'
4 '-x, -y, -z'
5 'x, -y, z+1/2'
6 'x, y, -z+1/2'
7 'x, -y, -z'
8 'x, y, z'
9 '-x+1/2, y+1/2, -z+1/2'
10 '-x+1/2, -y+1/2, z+1/2'
11 '-x+1/2, y+1/2, z'
12 '-x+1/2, -y+1/2, -z'
13 'x+1/2, -y+1/2, z+1/2'
14 'x+1/2, y+1/2, -z+1/2'
15 'x+1/2, -y+1/2, -z'
16 'x+1/2, y+1/2, z'
loop_
_atom_type_symbol
_atom_type_oxidation_number
Cs1+ 1
La3+ 3
Cd2+ 2
Te2- -2
loop_
_atom_site_label
_atom_site_type_symbol
_atom_site_symmetry_multiplicity
_atom_site_Wyckoff_symbol
_atom_site_fract_x
_atom_site_fract_y
_atom_site_fract_z
_atom_site_B_iso_or_equiv
_atom_site_occupancy
_atom_site_attached_hydrogens
Cs1 Cs1+ 4 c -0.5 0.24568(6) 0.25 0.0319(3) 1 0
La1 La3+ 4 a 0. 0. 0.5 0.0168(3) 1 0
Cd1 Cd2+ 4 c -0.5 -0.03968(6) 0.25 0.0205(3) 1 0
Te1 Te2- 4 c 0. 0.06440(5) 0.25 0.0159(3) 1 0
Te2 Te2- 8 f -0.5 -0.12844(4) 0.44455(5) 0.0187(3) 1 0
loop_
_atom_site_aniso_label
_atom_site_aniso_type_symbol
_atom_site_aniso_U_11
_atom_site_aniso_U_22
_atom_site_aniso_U_33
_atom_site_aniso_U_12
_atom_site_aniso_U_13
_atom_site_aniso_U_23
Cs1 Cs1+ 0.0248(6) 0.0239(6) 0.0468(7) 0. 0. 0.
La1 La3+ 0.0132(5) 0.0257(5) 0.0115(4) 0. 0. -0.0003(3)
Cd1 Cd2+ 0.0190(6) 0.0268(6) 0.0157(5) 0. 0. 0.
Te1 Te2- 0.0153(5) 0.0208(5) 0.0117(4) 0. 0. 0.
Te2 Te2- 0.0169(4) 0.0211(4) 0.0182(4) 0. 0. 0.0015(2)
#End of TTdata_173316-ICSD