
#(C) 2017 by FIZ Karlsruhe - Leibniz Institute for Information Infrastructure.  All rights reserved.
data_173357-ICSD
_database_code_ICSD 173357
_audit_creation_date 2008-08-01
_chemical_name_systematic
'Tetrabarium iron(II) iron(III) pentaiodide tetrasulfide'
_chemical_formula_structural 'Ba4 Fe2 I5 S4'
_chemical_formula_sum 'Ba4 Fe2 I5 S4'
_exptl_crystal_density_diffrn 4.87
_cell_measurement_temperature 153.
_publ_section_title
'Syntheses, structure, and a Moessbauer and magnetic studa of Ba4 Fe2 I5 S4'
loop_
_citation_id
_citation_journal_full
_citation_year
_citation_journal_volume
_citation_page_first
_citation_page_last
_citation_journal_id_ASTM
primary 'Inorganic Chemistry' 2008 47 94 100 INOCAJ
loop_
_publ_author_name
'Gray, D.L.'
'Long, G.-J.'
'Grandjean F.'
'Hermann, R.P.'
'Ibers, J.A.'
_cell_length_a 13.7583(13)
_cell_length_b 13.7583(13)
_cell_length_c 5.1261(7)
_cell_angle_alpha 90.
_cell_angle_beta 90.
_cell_angle_gamma 90.
_cell_volume 970.32
_cell_formula_units_Z 2
_symmetry_space_group_name_H-M 'I 4/m'
_symmetry_Int_Tables_number 87
_refine_ls_R_factor_all 0.0346
loop_
_symmetry_equiv_pos_site_id
_symmetry_equiv_pos_as_xyz
1 '-y, x, -z'
2 'y, -x, -z'
3 'x, y, -z'
4 '-x, -y, -z'
5 'y, -x, z'
6 '-y, x, z'
7 '-x, -y, z'
8 'x, y, z'
9 '-y+1/2, x+1/2, -z+1/2'
10 'y+1/2, -x+1/2, -z+1/2'
11 'x+1/2, y+1/2, -z+1/2'
12 '-x+1/2, -y+1/2, -z+1/2'
13 'y+1/2, -x+1/2, z+1/2'
14 '-y+1/2, x+1/2, z+1/2'
15 '-x+1/2, -y+1/2, z+1/2'
16 'x+1/2, y+1/2, z+1/2'
loop_
_atom_type_symbol
_atom_type_oxidation_number
Ba2+ 2
Fe2+ 2.5
I1- -1
S2- -2
loop_
_atom_site_label
_atom_site_type_symbol
_atom_site_symmetry_multiplicity
_atom_site_Wyckoff_symbol
_atom_site_fract_x
_atom_site_fract_y
_atom_site_fract_z
_atom_site_B_iso_or_equiv
_atom_site_occupancy
_atom_site_attached_hydrogens
Ba1 Ba2+ 8 h 0.24801(4) 0.06079(4) 0. 0.0125(2) 1 0
Fe1 Fe2+ 4 d 0. 0.5 0.25 0.0095(4) 1 0
I1 I1- 2 a 0. 0. 0. 0.0183(3) 1 0
I2 I1- 8 h 0.36929(4) 0.29706(4) 0. 0.0143(2) 1 0
S1 S2- 8 h 0.10360(15) 0.41200(15) 0. 0.0107(4) 1 0
loop_
_atom_site_aniso_label
_atom_site_aniso_type_symbol
_atom_site_aniso_U_11
_atom_site_aniso_U_22
_atom_site_aniso_U_33
_atom_site_aniso_U_12
_atom_site_aniso_U_13
_atom_site_aniso_U_23
Ba1 Ba2+ 0.0135(3) 0.0163(3) 0.0077(3) 0.00169(18) 0. 0.
Fe1 Fe2+ 0.0123(5) 0.0123(5) 0.0040(7) 0. 0. 0.
I1 I1- 0.0159(4) 0.0159(4) 0.0231(7) 0. 0. 0.
I2 I1- 0.0168(3) 0.0163(3) 0.0097(3) 0.0013(2) 0. 0.
S1 S2- 0.0132(9) 0.0126(9) 0.0061(10) 0.0010(8) 0. 0.
#End of TTdata_173357-ICSD