
#(C) 2017 by FIZ Karlsruhe - Leibniz Institute for Information Infrastructure.  All rights reserved.
data_173676-ICSD
_database_code_ICSD 173676
_audit_creation_date 2009-02-01
_audit_update_record 2010-02-01
_chemical_name_systematic 'Dizirconium tetraaluminium pentacarbide'
_chemical_formula_structural 'Zr2 Al4 C5'
_chemical_formula_sum 'C5 Al4 Zr2'
_chemical_name_structure_type Al4Zr2C5
_exptl_crystal_density_diffrn 4.46
_publ_section_title

;
Synthesis, crystal structures and Si solubilities of new layered carbides Zr2
Al4 C5 and Zr3 Al4 C6
;
loop_
_citation_id
_citation_journal_full
_citation_year
_citation_journal_volume
_citation_page_first
_citation_page_last
_citation_journal_id_ASTM
primary 'Journal of Solid State Chemistry' 2008 181 2864 2868 JSSCBI
loop_
_publ_author_name
'Sugiura, K.'
'Iwata, T.'
'Yoshida, H.'
'Hashimoto, S.'
'Fukuda, K.'
_cell_length_a 3.32169(3)
_cell_length_b 3.32169(3)
_cell_length_c 40.9479(3)
_cell_angle_alpha 90.
_cell_angle_beta 90.
_cell_angle_gamma 120.
_cell_volume 391.27
_cell_formula_units_Z 3
_symmetry_space_group_name_H-M 'R 3 m H'
_symmetry_Int_Tables_number 160
loop_
_symmetry_equiv_pos_site_id
_symmetry_equiv_pos_as_xyz
1 '-x+y, y, z'
2 'x, x-y, z'
3 '-y, -x, z'
4 '-x+y, -x, z'
5 '-y, x-y, z'
6 'x, y, z'
7 '-x+y+2/3, y+1/3, z+1/3'
8 'x+2/3, x-y+1/3, z+1/3'
9 '-y+2/3, -x+1/3, z+1/3'
10 '-x+y+2/3, -x+1/3, z+1/3'
11 '-y+2/3, x-y+1/3, z+1/3'
12 'x+2/3, y+1/3, z+1/3'
13 '-x+y+1/3, y+2/3, z+2/3'
14 'x+1/3, x-y+2/3, z+2/3'
15 '-y+1/3, -x+2/3, z+2/3'
16 '-x+y+1/3, -x+2/3, z+2/3'
17 '-y+1/3, x-y+2/3, z+2/3'
18 'x+1/3, y+2/3, z+2/3'
loop_
_atom_type_symbol
_atom_type_oxidation_number
Zr4+ 4
Al3+ 3
C4- -4
loop_
_atom_site_label
_atom_site_type_symbol
_atom_site_symmetry_multiplicity
_atom_site_Wyckoff_symbol
_atom_site_fract_x
_atom_site_fract_y
_atom_site_fract_z
_atom_site_B_iso_or_equiv
_atom_site_occupancy
_atom_site_attached_hydrogens
Zr1 Zr4+ 3 a 0 0 0.6298(3) 0.49(3) 1. 0
Zr2 Zr4+ 3 a 0 0 0.8984(3) 0.46(3) 1. 0
Al1 Al3+ 3 a 0 0 0.0696(3) 0.90(2) 1. 0
Al2 Al3+ 3 a 0 0 0.1752(4) 0.9 1. 0
Al3 Al3+ 3 a 0 0 0.3520(4) 0.9 1. 0
Al4 Al3+ 3 a 0 0 0.4502(3) 0.9 1. 0
C1 C4- 3 a 0 0 0 0.38(5) 1. 0
C2 C4- 3 a 0 0 0.1283(5) 0.38 1. 0
C3 C4- 3 a 0 0 0.2660(4) 0.38 1. 0
C4 C4- 3 a 0 0 0.3993(6) 0.38 1. 0
C5 C4- 3 a 0 0 0.5303(1) 0.38 1. 0
#End of TTdata_173676-ICSD