
#(C) 2017 by FIZ Karlsruhe - Leibniz Institute for Information Infrastructure.  All rights reserved.
data_173616-ICSD
_database_code_ICSD 173616
_audit_creation_date 2009-02-01
_chemical_name_systematic 'Barium iridium indium (1/1/4)'
_chemical_formula_structural 'Ba Ir In4'
_chemical_formula_sum 'Ba1 In4 Ir1'
_chemical_name_structure_type LaCoAl4
_exptl_crystal_density_diffrn 8.73
_cell_measurement_temperature 273.
_publ_section_title

;
Ba Ir In4 and Ba2 Ir4 In13: Two In-rich polar intermetallic structures with
different augmented prismatic environments about the cations
;
loop_
_citation_id
_citation_journal_full
_citation_year
_citation_journal_volume
_citation_page_first
_citation_page_last
_citation_journal_id_ASTM
primary 'Inorganic Chemistry' 2008 47 9344 9350 INOCAJ
loop_
_publ_author_name
'Palasyuk, A.M.'
'Corbett, J.D.'
_cell_length_a 8.642(2)
_cell_length_b 4.3958(10)
_cell_length_c 7.9064(18)
_cell_angle_alpha 90.
_cell_angle_beta 90.
_cell_angle_gamma 90.
_cell_volume 300.35
_cell_formula_units_Z 2
_symmetry_space_group_name_H-M 'P m m a'
_symmetry_Int_Tables_number 51
_refine_ls_R_factor_all 0.0234
loop_
_symmetry_equiv_pos_site_id
_symmetry_equiv_pos_as_xyz
1 '-x+1/2, -y, z'
2 'x+1/2, -y, -z'
3 'x, -y, z'
4 '-x, -y, -z'
5 'x+1/2, y, -z'
6 '-x+1/2, y, z'
7 '-x, y, -z'
8 'x, y, z'
loop_
_atom_type_symbol
_atom_type_oxidation_number
Ba0+ 0
Ir0+ 0
In0+ 0
loop_
_atom_site_label
_atom_site_type_symbol
_atom_site_symmetry_multiplicity
_atom_site_Wyckoff_symbol
_atom_site_fract_x
_atom_site_fract_y
_atom_site_fract_z
_atom_site_B_iso_or_equiv
_atom_site_occupancy
_atom_site_attached_hydrogens
Ba1 Ba0+ 2 e 0.25 0. 0.60801(9) 0.0112(3) 1 0
Ir1 Ir0+ 2 e 0.25 0. 0.18371(6) 0.0075(2) 1 0
In1 In0+ 4 j 0.06853(9) 0.5 0.29910(8) 0.0107(2) 1 0
In2 In0+ 2 f 0.25 0.5 0.94534(12) 0.0104(3) 1 0
In3 In0+ 2 a 0. 0. 0. 0.0126(3) 1 0
loop_
_atom_site_aniso_label
_atom_site_aniso_type_symbol
_atom_site_aniso_U_11
_atom_site_aniso_U_22
_atom_site_aniso_U_33
_atom_site_aniso_U_12
_atom_site_aniso_U_13
_atom_site_aniso_U_23
Ba1 Ba0+ 0.0141(5) 0.0115(4) 0.0081(4) 0. 0. 0.
Ir1 Ir0+ 0.0061(3) 0.0092(3) 0.0074(3) 0. 0. 0.
In1 In0+ 0.0090(4) 0.0117(4) 0.0113(4) 0. 0.0015(2) 0.
In2 In0+ 0.0121(5) 0.0101(5) 0.0089(5) 0. 0. 0.
In3 In0+ 0.0074(5) 0.0170(5) 0.0133(5) 0. -0.0038(4) 0.
#End of TTdata_173616-ICSD