
#(C) 2017 by FIZ Karlsruhe - Leibniz Institute for Information Infrastructure.  All rights reserved.
data_174222-ICSD
_database_code_ICSD 174222
_audit_creation_date 2010-08-01
_chemical_name_systematic 'Iridium phosphide (1/2)'
_chemical_formula_structural 'Ir P2'
_chemical_formula_sum 'Ir1 P2'
_chemical_name_structure_type FeAsS-CoSb2
_exptl_crystal_density_diffrn 9.41
_publ_section_title 'Hochdruckexperimente an A B2-Phasen des Arsenopyrit-Typs'
loop_
_citation_id
_citation_journal_full
_citation_year
_citation_journal_volume
_citation_page_first
_citation_page_last
_citation_journal_id_ASTM
primary 'Dissertation Universitaet Freiburg/Breisgau' 2008 2008 1 108 DIFREZ
loop_
_publ_author_name
'Loesel, S.'
_cell_length_a 5.737(1)
_cell_length_b 5.782(1)
_cell_length_c 5.840(1)
_cell_angle_alpha 90
_cell_angle_beta 111.62(3)
_cell_angle_gamma 90
_cell_volume 180.09
_cell_formula_units_Z 4
_symmetry_space_group_name_H-M 'P 1 21/c 1'
_symmetry_Int_Tables_number 14
_refine_ls_R_factor_all 0.0372
loop_
_symmetry_equiv_pos_site_id
_symmetry_equiv_pos_as_xyz
1 'x, -y+1/2, z+1/2'
2 '-x, -y, -z'
3 '-x, y+1/2, -z+1/2'
4 'x, y, z'
loop_
_atom_type_symbol
_atom_type_oxidation_number
Ir0+ 0
P0+ 0
loop_
_atom_site_label
_atom_site_type_symbol
_atom_site_symmetry_multiplicity
_atom_site_Wyckoff_symbol
_atom_site_fract_x
_atom_site_fract_y
_atom_site_fract_z
_atom_site_B_iso_or_equiv
_atom_site_occupancy
_atom_site_attached_hydrogens
Ir1 Ir0+ 4 e 0.2720(9) 0.0008(1) 0.2921(1) 0.0066(3) 1. 0
P1 P0+ 4 e 0.3343(8) 0.3760(7) 0.1900(7) 0.0083(7) 1. 0
P2 P0+ 4 e 0.1577(8) 0.6187(7) 0.3706(6) 0.0068(7) 1. 0
loop_
_atom_site_aniso_label
_atom_site_aniso_type_symbol
_atom_site_aniso_U_11
_atom_site_aniso_U_22
_atom_site_aniso_U_33
_atom_site_aniso_U_12
_atom_site_aniso_U_13
_atom_site_aniso_U_23
Ir1 Ir0+ 0.0068(4) 0.0064(4) 0.0051(4) -0.0002(2) 0.0005(2) -0.0001(2)
P1 P0+ 0.009(2) 0.009(2) 0.006(1) -0.001(2) 0.0005(1) -0.003(1)
P2 P0+ 0.009(2) 0.006(2) 0.004(1) 0.001(1) 0.001(1) 0.000(1)
#End of TTdata_174222-ICSD