
#(C) 2017 by FIZ Karlsruhe - Leibniz Institute for Information Infrastructure.  All rights reserved.
data_174221-ICSD
_database_code_ICSD 174221
_audit_creation_date 2010-08-01
_chemical_name_systematic 'Rhodium phosphide (1/2)'
_chemical_formula_structural 'Rh P2'
_chemical_formula_sum 'P2 Rh1'
_chemical_name_structure_type FeAsS-CoSb2
_exptl_crystal_density_diffrn 6.1
_publ_section_title 'Hochdruckexperimente an A B2-Phasen des Arsenopyrit-Typs'
loop_
_citation_id
_citation_journal_full
_citation_year
_citation_journal_volume
_citation_page_first
_citation_page_last
_citation_journal_id_ASTM
primary 'Dissertation Universitaet Freiburg/Breisgau' 2008 2008 1 108 DIFREZ
loop_
_publ_author_name
'Loesel, S.'
_cell_length_a 5.728(1)
_cell_length_b 5.778(1)
_cell_length_c 5.824(1)
_cell_angle_alpha 90
_cell_angle_beta 112.96(3)
_cell_angle_gamma 90
_cell_volume 177.48
_cell_formula_units_Z 4
_symmetry_space_group_name_H-M 'P 1 21/c 1'
_symmetry_Int_Tables_number 14
_refine_ls_R_factor_all 0.0303
loop_
_symmetry_equiv_pos_site_id
_symmetry_equiv_pos_as_xyz
1 'x, -y+1/2, z+1/2'
2 '-x, -y, -z'
3 '-x, y+1/2, -z+1/2'
4 'x, y, z'
loop_
_atom_type_symbol
_atom_type_oxidation_number
Rh0+ 0
P0+ 0
loop_
_atom_site_label
_atom_site_type_symbol
_atom_site_symmetry_multiplicity
_atom_site_Wyckoff_symbol
_atom_site_fract_x
_atom_site_fract_y
_atom_site_fract_z
_atom_site_B_iso_or_equiv
_atom_site_occupancy
_atom_site_attached_hydrogens
Rh1 Rh0+ 4 e 0.2716(1) 0.0014(1) 0.2898(1) 0.0069(2) 1. 0
P1 P0+ 4 e 0.3341(3) 0.3773(3) 0.1888(3) 0.0082(3) 1. 0
P2 P0+ 4 e 0.1610(3) 0.6208(3) 0.3668(3) 0.0082(3) 1. 0
loop_
_atom_site_aniso_label
_atom_site_aniso_type_symbol
_atom_site_aniso_U_11
_atom_site_aniso_U_22
_atom_site_aniso_U_33
_atom_site_aniso_U_12
_atom_site_aniso_U_13
_atom_site_aniso_U_23
Rh1 Rh0+ 0.0072(3) 0.0060(3) 0.0078(3) 0.0000(2) 0.0031(2) -0.0001(2)
P1 P0+ 0.009(1) 0.007(1) 0.010(1) 0.0003(6) 0.0040(5) -0.0002(6)
P2 P0+ 0.009(1) 0.008(1) 0.009(1) 0.0006(6) 0.0036(5) 0.0003(5)
#End of TTdata_174221-ICSD