
#(C) 2017 by FIZ Karlsruhe - Leibniz Institute for Information Infrastructure.  All rights reserved.
data_174342-ICSD
_database_code_ICSD 174342
_audit_creation_date 2010-08-01
_chemical_name_systematic 'Lanthanum ruthenium aluminium boride (1/2/2/1)'
_chemical_formula_structural 'La Ru2 Al2 B'
_chemical_formula_sum 'Al2 B1 La1 Ru2'
_chemical_name_structure_type PrCr2Si2C
_exptl_crystal_density_diffrn 6.71
_cell_measurement_temperature 298.
_publ_section_title

;
Ruthenium intermetallics grown from La-Ni flux: synthesis, structure, and
physical properties
;
loop_
_citation_id
_citation_journal_full
_citation_year
_citation_journal_volume
_citation_page_first
_citation_page_last
_citation_journal_id_ASTM
primary 'Inorganic Chemistry' 2010 49 2773 2781 INOCAJ
loop_
_publ_author_name
'Zaikina, J.V.'
'Jo, Y.J.'
'Latturner, S.E.'
_cell_length_a 4.2105(5)
_cell_length_b 4.2105(5)
_cell_length_c 5.6613(8)
_cell_angle_alpha 90.
_cell_angle_beta 90.
_cell_angle_gamma 90.
_cell_volume 100.37
_cell_formula_units_Z 1
_symmetry_space_group_name_H-M 'P 4/m m m'
_symmetry_Int_Tables_number 123
_refine_ls_R_factor_all 0.0137
loop_
_symmetry_equiv_pos_site_id
_symmetry_equiv_pos_as_xyz
1 'y, x, -z'
2 '-y, -x, -z'
3 '-y, x, -z'
4 'y, -x, -z'
5 '-x, y, -z'
6 'x, -y, -z'
7 'x, y, -z'
8 '-x, -y, -z'
9 '-y, -x, z'
10 'y, x, z'
11 'y, -x, z'
12 '-y, x, z'
13 'x, -y, z'
14 '-x, y, z'
15 '-x, -y, z'
16 'x, y, z'
loop_
_atom_type_symbol
_atom_type_oxidation_number
La0+ 0
B0+ 0
Al0+ 0
Ru0+ 0
loop_
_atom_site_label
_atom_site_type_symbol
_atom_site_symmetry_multiplicity
_atom_site_Wyckoff_symbol
_atom_site_fract_x
_atom_site_fract_y
_atom_site_fract_z
_atom_site_B_iso_or_equiv
_atom_site_occupancy
_atom_site_attached_hydrogens
La1 La0+ 1 b 0. 0. 0.5 0.00642(11) 1 0
B1 B0+ 1 a 0. 0. 0. 0.0069(9) 1 0
Al1 Al0+ 2 h 0.5 0.5 0.2537(2) 0.0066(2) 1 0
Ru1 Ru0+ 2 f 0. 0.5 0. 0.00455(11) 1 0
loop_
_atom_site_aniso_label
_atom_site_aniso_type_symbol
_atom_site_aniso_U_11
_atom_site_aniso_U_22
_atom_site_aniso_U_33
_atom_site_aniso_U_12
_atom_site_aniso_U_13
_atom_site_aniso_U_23
La1 La0+ 0.00671(12) 0.00671(12) 0.00583(18) 0. 0. 0.
B1 B0+ 0.0058(12) 0.0058(12) 0.009(3) 0. 0. 0.
Al1 Al0+ 0.0071(3) 0.0071(3) 0.0057(6) 0. 0. 0.
Ru1 Ru0+ 0.00374(13) 0.00419(14) 0.00572(18) 0. 0. 0.
#End of TTdata_174342-ICSD