
#(C) 2017 by FIZ Karlsruhe - Leibniz Institute for Information Infrastructure.  All rights reserved.
data_180121-ICSD
_database_code_ICSD 180121
_audit_creation_date 2011-08-01
_chemical_name_systematic 'Lithium magnesium iridium hydride (1/1/1/6)'
_chemical_formula_structural 'Li Mg Ir H6'
_chemical_formula_sum 'H6 Ir1 Li1 Mg1'
_exptl_crystal_density_diffrn 5.17
_publ_section_title 'Synthesis of Li2 Mg Ir and Li Mg Ir H6: guidance from DFT'
loop_
_citation_id
_citation_journal_full
_citation_year
_citation_journal_volume
_citation_page_first
_citation_page_last
_citation_journal_id_ASTM
primary 'Journal of Alloys and Compounds' 2011 509 3203 3207 JALCEU
loop_
_publ_author_name
'Salvador, J.R.'
'Herbst, J.F.'
'Meyer, M.S.'
_cell_length_a 6.667(1)
_cell_length_b 6.667(1)
_cell_length_c 6.667(1)
_cell_angle_alpha 90.
_cell_angle_beta 90.
_cell_angle_gamma 90.
_cell_volume 296.34
_cell_formula_units_Z 4
_symmetry_space_group_name_H-M 'P -4 3 m'
_symmetry_Int_Tables_number 215
loop_
_symmetry_equiv_pos_site_id
_symmetry_equiv_pos_as_xyz
1 '-z, -y, x'
2 '-y, -x, z'
3 '-x, -z, y'
4 '-z, -x, y'
5 '-y, -z, x'
6 '-x, -y, z'
7 '-z, y, -x'
8 '-y, x, -z'
9 '-x, z, -y'
10 '-z, x, -y'
11 '-y, z, -x'
12 '-x, y, -z'
13 'z, -y, -x'
14 'y, -x, -z'
15 'x, -z, -y'
16 'z, -x, -y'
17 'y, -z, -x'
18 'x, -y, -z'
19 'z, y, x'
20 'y, x, z'
21 'x, z, y'
22 'z, x, y'
23 'y, z, x'
24 'x, y, z'
loop_
_atom_type_symbol
_atom_type_oxidation_number
Li0+ 0
Mg0+ 0
Ir0+ 0
H0+ 0
loop_
_atom_site_label
_atom_site_type_symbol
_atom_site_symmetry_multiplicity
_atom_site_Wyckoff_symbol
_atom_site_fract_x
_atom_site_fract_y
_atom_site_fract_z
_atom_site_B_iso_or_equiv
_atom_site_occupancy
_atom_site_attached_hydrogens
Li1 Li0+ 1 b 0.5 0.5 0.5 . 1. 0
Li2 Li0+ 3 c 0 0.5 0.5 . 1. 0
Mg1 Mg0+ 1 a 0 0 0 . 1. 0
Mg2 Mg0+ 3 d 0.5 0 0 . 1. 0
Ir1 Ir0+ 4 e 0.7943 0.7943 0.7943 . 1. 0
#End of TTdata_180121-ICSD