
#(C) 2017 by FIZ Karlsruhe - Leibniz Institute for Information Infrastructure.  All rights reserved.
data_180365-ICSD
_database_code_ICSD 180365
_audit_creation_date 2011-08-01
_chemical_name_systematic 'Magnesium zinc aluminium (2/3/4) - eta''
_chemical_formula_structural 'Mg2 Zn3 Al4'
_chemical_formula_sum 'Al4 Mg2 Zn3'
_chemical_name_structure_type Ba4Al5
_exptl_crystal_density_diffrn 3.92
_publ_section_title

;
Transformations and structures in the Al - Zn - Mg alloy system: a diffraction
study using synchrotron radiation and electron precession
;
loop_
_citation_id
_citation_journal_full
_citation_year
_citation_journal_volume
_citation_page_first
_citation_page_last
_citation_journal_id_ASTM
primary

;
Materials Science and Engineering A: Structural Matrials: Properties,
Microstructure and Processing
; 2011 528 880 887 MSAPE3
loop_
_publ_author_name
'Kverneland, A.'
'Hansen, V.'
'Thorkildsen, G.'
'Larsen, H.B.'
'Pattison, P.'
'Li, X.-Z.'
'Gjonnes, J.'
_cell_length_a 4.96
_cell_length_b 4.96
_cell_length_c 14.02
_cell_angle_alpha 90.
_cell_angle_beta 90.
_cell_angle_gamma 120.
_cell_volume 298.7
_cell_formula_units_Z 2
_symmetry_space_group_name_H-M 'P 63/m m c'
_symmetry_Int_Tables_number 194
loop_
_symmetry_equiv_pos_site_id
_symmetry_equiv_pos_as_xyz
1 'x, x-y, -z+1/2'
2 '-x+y, y, -z+1/2'
3 '-y, -x, -z+1/2'
4 '-x+y, -x, -z+1/2'
5 '-y, x-y, -z+1/2'
6 'x, y, -z+1/2'
7 '-x, -x+y, z+1/2'
8 'x-y, -y, z+1/2'
9 'y, x, z+1/2'
10 'x-y, x, z+1/2'
11 'y, -x+y, z+1/2'
12 '-x, -y, z+1/2'
13 '-x, -x+y, -z'
14 'x-y, -y, -z'
15 'y, x, -z'
16 'x-y, x, -z'
17 'y, -x+y, -z'
18 '-x, -y, -z'
19 'x, x-y, z'
20 '-x+y, y, z'
21 '-y, -x, z'
22 '-x+y, -x, z'
23 '-y, x-y, z'
24 'x, y, z'
loop_
_atom_type_symbol
_atom_type_oxidation_number
Al0+ 0
Mg0+ 0
Zn0+ 0
loop_
_atom_site_label
_atom_site_type_symbol
_atom_site_symmetry_multiplicity
_atom_site_Wyckoff_symbol
_atom_site_fract_x
_atom_site_fract_y
_atom_site_fract_z
_atom_site_B_iso_or_equiv
_atom_site_occupancy
_atom_site_attached_hydrogens
Al1 Al0+ 4 f 0.3333 0.6667 0.09 . 1. 0
Al2 Al0+ 4 e 0 0 0.09 . 1. 0
Mg1 Mg0+ 4 f 0.3333 0.6667 0.63 . 1. 0
Zn1 Zn0+ 6 h 0.17 0.34 0.25 . 1. 0
#End of TTdata_180365-ICSD