
#(C) 2017 by FIZ Karlsruhe - Leibniz Institute for Information Infrastructure.  All rights reserved.
data_180424-ICSD
_database_code_ICSD 180424
_audit_creation_date 2012-02-01
_chemical_name_systematic 'Trititanium germanide dicarbide'
_chemical_formula_structural 'Ti3 Ge C2'
_chemical_formula_sum 'C2 Ge1 Ti3'
_chemical_name_structure_type Ti3C2Si
_exptl_crystal_density_diffrn 5.42
_cell_measurement_temperature 100.
_publ_section_title

;
High-temperature neutron diffraction and the temperature-dependent crystal
structures of the MAX phases Ti3 Si C2 and Ti3 Ge C2
;
loop_
_citation_id
_citation_journal_full
_citation_year
_citation_journal_volume
_citation_page_first
_citation_page_last
_citation_journal_id_ASTM
primary 'Physical Review, Serie 3. B - Condensed Matter (18,1978-)' 2010 82
174109-1 174109-11 PRBMDO
loop_
_publ_author_name
'Lane, N.J.'
'Vogel, S.C.'
'Barsoum, M.W.'
_cell_length_a 3.08793(5)
_cell_length_b 3.08793(5)
_cell_length_c 17.8193(5)
_cell_angle_alpha 90.
_cell_angle_beta 90.
_cell_angle_gamma 120.
_cell_volume 147.15
_cell_formula_units_Z 2
_symmetry_space_group_name_H-M 'P 63/m m c'
_symmetry_Int_Tables_number 194
loop_
_symmetry_equiv_pos_site_id
_symmetry_equiv_pos_as_xyz
1 'x, x-y, -z+1/2'
2 '-x+y, y, -z+1/2'
3 '-y, -x, -z+1/2'
4 '-x+y, -x, -z+1/2'
5 '-y, x-y, -z+1/2'
6 'x, y, -z+1/2'
7 '-x, -x+y, z+1/2'
8 'x-y, -y, z+1/2'
9 'y, x, z+1/2'
10 'x-y, x, z+1/2'
11 'y, -x+y, z+1/2'
12 '-x, -y, z+1/2'
13 '-x, -x+y, -z'
14 'x-y, -y, -z'
15 'y, x, -z'
16 'x-y, x, -z'
17 'y, -x+y, -z'
18 '-x, -y, -z'
19 'x, x-y, z'
20 '-x+y, y, z'
21 '-y, -x, z'
22 '-x+y, -x, z'
23 '-y, x-y, z'
24 'x, y, z'
loop_
_atom_type_symbol
_atom_type_oxidation_number
Ti0+ 0
Ge0+ 0
C0+ 0
loop_
_atom_site_label
_atom_site_type_symbol
_atom_site_symmetry_multiplicity
_atom_site_Wyckoff_symbol
_atom_site_fract_x
_atom_site_fract_y
_atom_site_fract_z
_atom_site_B_iso_or_equiv
_atom_site_occupancy
_atom_site_attached_hydrogens
Ti1 Ti0+ 4 f 0.3333 0.6667 0.13245(9) 0.0050(6) 1. 0
Ti2 Ti0+ 2 a 0 0 0 0.0070(6) 1. 0
Ge1 Ge0+ 2 b 0 0 0.25 0.0125(6) 1. 0
C1 C0+ 4 f 0.3333 0.6667 0.57148(4) 0.0064(6) 1. 0
loop_
_atom_site_aniso_label
_atom_site_aniso_type_symbol
_atom_site_aniso_U_11
_atom_site_aniso_U_22
_atom_site_aniso_U_33
_atom_site_aniso_U_12
_atom_site_aniso_U_13
_atom_site_aniso_U_23
Ti1 Ti0+ 0.0040(4) 0.0040(4) 0.0085(4) 0.0020(2) 0. 0.
Ti2 Ti0+ 0.0100(4) 0.0100(4) 0.0060(4) 0.0050(2) 0. 0.
Ge1 Ge0+ 0.021(1) 0.021(1) 0.006(1) 0.0105(5) 0. 0.
C1 C0+ 0.0095(4) 0.0095(4) 0.0050(4) 0.0048(2) 0. 0.
#End of TTdata_180424-ICSD