
#(C) 2017 by FIZ Karlsruhe - Leibniz Institute for Information Infrastructure.  All rights reserved.
data_180954-ICSD
_database_code_ICSD 180954
_audit_creation_date 2011-08-01
_chemical_name_systematic 'Dibarium cadmium diborate'
_chemical_formula_structural 'Ba2 Cd (B O3)2'
_chemical_formula_sum 'B2 Ba2 Cd1 O6'
_chemical_name_structure_type Ba2Ca(BO3)2
_exptl_crystal_density_diffrn 5.64
_cell_measurement_temperature 296.
_publ_section_title

;
Growth, crystal structure and optical properties of layered dibarium cadmium
diborate, Ba2 Cd (B O3)2
;
loop_
_citation_id
_citation_journal_full
_citation_year
_citation_journal_volume
_citation_page_first
_citation_page_last
_citation_journal_id_ASTM
primary 'Journal of Alloys and Compounds' 2011 509 6696 6699 JALCEU
loop_
_publ_author_name
'Zhang, Min'
'Pan, Shi Lie'
'Han, Jian'
'Yang, Yun'
'Cui, Liang'
'Zhou, Zhong Xiang'
_cell_length_a 9.6305(4)
_cell_length_b 5.3626(3)
_cell_length_c 6.5236(2)
_cell_angle_alpha 90.
_cell_angle_beta 118.079(3)
_cell_angle_gamma 90.
_cell_volume 297.25
_cell_formula_units_Z 2
_symmetry_space_group_name_H-M 'C 1 2/m 1'
_symmetry_Int_Tables_number 12
_refine_ls_R_factor_all 0.0269
loop_
_symmetry_equiv_pos_site_id
_symmetry_equiv_pos_as_xyz
1 '-x, y, -z'
2 '-x, -y, -z'
3 'x, -y, z'
4 'x, y, z'
5 '-x+1/2, y+1/2, -z'
6 '-x+1/2, -y+1/2, -z'
7 'x+1/2, -y+1/2, z'
8 'x+1/2, y+1/2, z'
loop_
_atom_type_symbol
_atom_type_oxidation_number
Cd2+ 2
Ba2+ 2
B3+ 3
O2- -2
loop_
_atom_site_label
_atom_site_type_symbol
_atom_site_symmetry_multiplicity
_atom_site_Wyckoff_symbol
_atom_site_fract_x
_atom_site_fract_y
_atom_site_fract_z
_atom_site_B_iso_or_equiv
_atom_site_occupancy
_atom_site_attached_hydrogens
Cd1 Cd2+ 2 a 0 0 0 0.015(1) 1. 0
Ba1 Ba2+ 4 i 0.2100(1) 0 0.6879(1) 0.016(1) 1. 0
B1 B3+ 4 i 0.0619(14) 0.5 0.7590(20) 0.014(2) 1. 0
O1 O2- 8 j -0.0214(7) 0.7224(11) 0.7255(10) 0.020(1) 1. 0
O2 O2- 4 i 0.2180(10) 0.5 0.8255(17) 0.027(2) 1. 0
#End of TTdata_180954-ICSD