
#(C) 2017 by FIZ Karlsruhe - Leibniz Institute for Information Infrastructure.  All rights reserved.
data_18118-ICSD
_database_code_ICSD 18118
_audit_creation_date 1980-01-01
_audit_update_record 2003-04-01
_chemical_name_systematic 'Cadmium chromate - alpha'
_chemical_formula_structural 'Cd (Cr O4)'
_chemical_formula_sum 'Cd1 Cr1 O4'
_chemical_name_structure_type CrVO4
_exptl_crystal_density_diffrn 4.42
_publ_section_title
'X-ray diffraction study of the chromates of nickel, magnesium and cadmium'
loop_
_citation_id
_citation_journal_full
_citation_year
_citation_journal_volume
_citation_page_first
_citation_page_last
_citation_journal_id_ASTM
primary

;
Zeitschrift fuer Kristallographie, Kristallgeometrie, Kristallphysik,
Kristallchemie (-144,1977)
; 1969 130 112 120 ZEKGAX
loop_
_publ_author_name
'Muller, O.'
'White, W.B.'
'Roy, R.'
_cell_length_a 5.678
_cell_length_b 8.723
_cell_length_c 6.926
_cell_angle_alpha 90.
_cell_angle_beta 90.
_cell_angle_gamma 90.
_cell_volume 343.04
_cell_formula_units_Z 4
_symmetry_space_group_name_H-M 'C m c m'
_symmetry_Int_Tables_number 63
_refine_ls_R_factor_all 0.209
loop_
_symmetry_equiv_pos_site_id
_symmetry_equiv_pos_as_xyz
1 '-x, y, -z+1/2'
2 '-x, -y, z+1/2'
3 '-x, y, z'
4 '-x, -y, -z'
5 'x, -y, z+1/2'
6 'x, y, -z+1/2'
7 'x, -y, -z'
8 'x, y, z'
9 '-x+1/2, y+1/2, -z+1/2'
10 '-x+1/2, -y+1/2, z+1/2'
11 '-x+1/2, y+1/2, z'
12 '-x+1/2, -y+1/2, -z'
13 'x+1/2, -y+1/2, z+1/2'
14 'x+1/2, y+1/2, -z+1/2'
15 'x+1/2, -y+1/2, -z'
16 'x+1/2, y+1/2, z'
loop_
_atom_type_symbol
_atom_type_oxidation_number
Cd2+ 2
Cr6+ 6
O2- -2
loop_
_atom_site_label
_atom_site_type_symbol
_atom_site_symmetry_multiplicity
_atom_site_Wyckoff_symbol
_atom_site_fract_x
_atom_site_fract_y
_atom_site_fract_z
_atom_site_B_iso_or_equiv
_atom_site_occupancy
_atom_site_attached_hydrogens
Cd1 Cd2+ 4 a 0 0 0 0.5 1. 0
Cr1 Cr6+ 4 c 0 0.355 0.25 0.5 1. 0
O1 O2- 8 f 0 0.24 0.03 1. 1. 0
O2 O2- 8 g 0.26 -.02 0.25 1. 1. 0
#End of TTdata_18118-ICSD