
data_182053-ICSD
_database_code_ICSD 182053
_audit_creation_date 2012-02-01
_chemical_name_systematic 'Calcium silicate (2/1) - alpha'
_chemical_formula_structural 'Ca2 (Si O4)'
_chemical_formula_sum 'Ca2 O4 Si1'
_chemical_name_structure_type Na2MnO4
_exptl_crystal_density_diffrn 3.05
_cell_length_a 5.47
_cell_length_b 5.47
_cell_length_c 7.23
_cell_angle_alpha 90.
_cell_angle_beta 90.
_cell_angle_gamma 120.
_cell_volume 187.35
_cell_formula_units_Z 2
_symmetry_space_group_name_H-M 'P 63 m c'
_symmetry_Int_Tables_number 186
loop_
_symmetry_equiv_pos_site_id
_symmetry_equiv_pos_as_xyz
1 '-x, -x+y, z+1/2'
2 'x-y, -y, z+1/2'
3 'y, x, z+1/2'
4 'x-y, x, z+1/2'
5 'y, -x+y, z+1/2'
6 '-x, -y, z+1/2'
7 'x, x-y, z'
8 '-x+y, y, z'
9 '-y, -x, z'
10 '-x+y, -x, z'
11 '-y, x-y, z'
12 'x, y, z'
loop_
_atom_type_symbol
_atom_type_oxidation_number
Ca2+ 2
Si4+ 4
O2- -2
loop_
_atom_site_label
_atom_site_type_symbol
_atom_site_symmetry_multiplicity
_atom_site_Wyckoff_symbol
_atom_site_fract_x
_atom_site_fract_y
_atom_site_fract_z
_atom_site_B_iso_or_equiv
_atom_site_occupancy
_atom_site_attached_hydrogens
Ca1 Ca2+ 2 b 0.3333 0.6667 0.95 . 1. 0
Ca2 Ca2+ 2 a 0 0 0.5 . 1. 0
Si1 Si4+ 2 b 0.3333 0.6667 0.34 . 1. 0
O1 O2- 2 b 0.3333 0.6667 0.56 . 1. 0
O2 O2- 6 c 0.17 -0.17 0.25 . 1. 0
