
#(C) 2017 by FIZ Karlsruhe - Leibniz Institute for Information Infrastructure.  All rights reserved.
data_182148-ICSD
_database_code_ICSD 182148
_audit_creation_date 2012-02-01
_chemical_name_systematic 'Yttrium vanadium stannide (1/6/6)'
_chemical_formula_structural 'Y V6 Sn6'
_chemical_formula_sum 'Sn6 V6 Y1'
_chemical_name_structure_type Fe6Ge6Mg
_exptl_crystal_density_diffrn 7.57
_publ_section_title

;
Peculiarities of component interaction in (Gd,Er) - V - Sn ternary systems at
870 K and crystal structure of R V6 Sn6 stannides
;
loop_
_citation_id
_citation_journal_full
_citation_year
_citation_journal_volume
_citation_page_first
_citation_page_last
_citation_journal_id_ASTM
primary 'Journal of Alloys and Compounds' 2011 509 8862 8869 JALCEU
loop_
_publ_author_name
'Romaka, L.'
'Stadnyk, Yu.'
'Romaka, V.V.'
'Demchenko, P.'
'Stadnyshyn, M.'
'Konyk, M.'
_cell_length_a 5.5232(7)
_cell_length_b 5.5232(7)
_cell_length_c 9.1860(1)
_cell_angle_alpha 90.
_cell_angle_beta 90.
_cell_angle_gamma 120.
_cell_volume 242.68
_cell_formula_units_Z 1
_symmetry_space_group_name_H-M 'P 6/m m m'
_symmetry_Int_Tables_number 191
_refine_ls_R_factor_all 0.0373
loop_
_symmetry_equiv_pos_site_id
_symmetry_equiv_pos_as_xyz
1 '-x, -x+y, -z'
2 'x-y, -y, -z'
3 'y, x, -z'
4 '-x+y, -x, -z'
5 '-y, x-y, -z'
6 'x, y, -z'
7 'x, x-y, -z'
8 '-x+y, y, -z'
9 '-y, -x, -z'
10 'x-y, x, -z'
11 'y, -x+y, -z'
12 '-x, -y, -z'
13 'x, x-y, z'
14 '-x+y, y, z'
15 '-y, -x, z'
16 'x-y, x, z'
17 'y, -x+y, z'
18 '-x, -y, z'
19 '-x, -x+y, z'
20 'x-y, -y, z'
21 'y, x, z'
22 '-x+y, -x, z'
23 '-y, x-y, z'
24 'x, y, z'
loop_
_atom_type_symbol
_atom_type_oxidation_number
V0+ 0
Y0+ 0
Sn0+ 0
loop_
_atom_site_label
_atom_site_type_symbol
_atom_site_symmetry_multiplicity
_atom_site_Wyckoff_symbol
_atom_site_fract_x
_atom_site_fract_y
_atom_site_fract_z
_atom_site_B_iso_or_equiv
_atom_site_occupancy
_atom_site_attached_hydrogens
V1 V0+ 6 i 0.5 0 0.2518(2) 0.53(4) 1. 0
Y1 Y0+ 1 a 0 0 0 1.18(7) 1. 0
Sn1 Sn0+ 2 e 0 0 0.33375(15) 1.23(4) 1. 0
Sn2 Sn0+ 2 d 0.3333 0.6667 0.5 0.51(4) 1. 0
Sn3 Sn0+ 2 c 0.3333 0.6667 0 0.32(3) 1. 0
#End of TTdata_182148-ICSD