
#(C) 2017 by FIZ Karlsruhe - Leibniz Institute for Information Infrastructure.  All rights reserved.
data_182315-ICSD
_database_code_ICSD 182315
_audit_creation_date 2012-02-01
_audit_update_record 2013-08-01
_chemical_name_systematic 'Osmium diselenium dodecabromide'
_chemical_formula_structural 'Os Se2 Br12'
_chemical_formula_sum 'Br12 Os1 Se2'
_chemical_name_structure_type OsSe2Br12
_exptl_crystal_density_diffrn 4.64
_publ_section_title 'Crystal structure of osmium selenobromide Os Se2 Br12'
loop_
_citation_id
_citation_journal_full
_citation_year
_citation_journal_volume
_citation_page_first
_citation_page_last
_citation_journal_id_ASTM
primary 'Zhurnal Neorganicheskoi Khimii' 2011 56 428 432 ZNOKAQ
loop_
_publ_author_name
'Volkov, S.V.'
'Demchenko, P.Yu.'
'Aksel'rud, L.G.'
'Gladyshevskii, R.E.'
'Pekhn'o, V.I.'
'Fokina, Z.A.'
'Yanko, O.G.'
'Khar'kova, L.B.'
_cell_length_a 14.0464(2)
_cell_length_b 11.05398(14)
_cell_length_c 6.50340(9)
_cell_angle_alpha 90.
_cell_angle_beta 112.2645(11)
_cell_angle_gamma 90.
_cell_volume 934.49
_cell_formula_units_Z 2
_symmetry_space_group_name_H-M 'C 1 2/m 1'
_symmetry_Int_Tables_number 12
_refine_ls_R_factor_all 0.0395
loop_
_symmetry_equiv_pos_site_id
_symmetry_equiv_pos_as_xyz
1 '-x, y, -z'
2 '-x, -y, -z'
3 'x, -y, z'
4 'x, y, z'
5 '-x+1/2, y+1/2, -z'
6 '-x+1/2, -y+1/2, -z'
7 'x+1/2, -y+1/2, z'
8 'x+1/2, y+1/2, z'
loop_
_atom_type_symbol
_atom_type_oxidation_number
Os4+ 4
Se4+ 4
Br1- -1
loop_
_atom_site_label
_atom_site_type_symbol
_atom_site_symmetry_multiplicity
_atom_site_Wyckoff_symbol
_atom_site_fract_x
_atom_site_fract_y
_atom_site_fract_z
_atom_site_B_iso_or_equiv
_atom_site_occupancy
_atom_site_attached_hydrogens
Os1 Os4+ 2 a 0 0 0 0.027(3) 1. 0
Se1 Se4+ 4 i 0.2806(3) 0 0.2695(8) 0.026(4) 1. 0
Br1 Br1- 8 j 0.1045(2) 0.1592(3) 0.2587(5) 0.042(3) 1. 0
Br2 Br1- 8 j 0.3734(2) 0.1613(3) 0.2027(5) 0.048(3) 1. 0
Br3 Br1- 4 i 0.1248(3) 0 0.8129(8) 0.041(5) 1. 0
Br4 Br1- 4 i 0.6428(4) 0 0.3381(8) 0.061(6) 1. 0
loop_
_atom_site_aniso_label
_atom_site_aniso_type_symbol
_atom_site_aniso_U_11
_atom_site_aniso_U_22
_atom_site_aniso_U_33
_atom_site_aniso_U_12
_atom_site_aniso_U_13
_atom_site_aniso_U_23
Os1 Os4+ 0.029(3) 0.025(2) 0.028(3) 0. 0.015(2) 0.
Se1 Se4+ 0.009(4) 0.037(4) 0.033(4) 0. 0.006(4) 0.
Br1 Br1- 0.044(3) 0.036(3) 0.045(3) -0.003(2) 0.019(2) -0.004(2)
Br2 Br1- 0.043(4) 0.039(3) 0.063(4) -0.011(3) 0.011(3) 0.004(3)
Br3 Br1- 0.034(5) 0.061(5) 0.030(4) 0. 0.015(4) 0.
Br4 Br1- 0.058(7) 0.065(5) 0.059(5) 0. 0.032(5) 0.
#End of TTdata_182315-ICSD