
#(C) 2017 by FIZ Karlsruhe - Leibniz Institute for Information Infrastructure.  All rights reserved.
data_1824-ICSD
_database_code_ICSD 1824
_audit_creation_date 1980-01-01
_audit_update_record 2010-02-01
_chemical_name_systematic 'Chromium gallium (3/4)'
_chemical_formula_structural 'Cr3 Ga4'
_chemical_formula_sum 'Cr3 Ga4'
_chemical_name_structure_type Fe3Ga4
_exptl_crystal_density_diffrn 7.1
_publ_section_title 'Structures cristallines des phases Fe3 Ga4 et Cr3 Ga4'
loop_
_citation_id
_citation_journal_full
_citation_year
_citation_journal_volume
_citation_page_first
_citation_page_last
_citation_journal_id_ASTM
primary 'Acta Crystallographica B (24,1968-38,1982)' 1975 31 477 482 ACBCAR
loop_
_publ_author_name
'Philippe, M.J.'
'Malaman, B.'
'Roques, B.'
'Courtois, A.'
'Protas, J.'
_cell_length_a 10.135(5)
_cell_length_b 7.845(5)
_cell_length_c 7.986(5)
_cell_angle_alpha 90.
_cell_angle_beta 106.0(2)
_cell_angle_gamma 90.
_cell_volume 610.36
_cell_formula_units_Z 6
_symmetry_space_group_name_H-M 'C 1 2/m 1'
_symmetry_Int_Tables_number 12
_refine_ls_R_factor_all 0.078
loop_
_symmetry_equiv_pos_site_id
_symmetry_equiv_pos_as_xyz
1 '-x, y, -z'
2 '-x, -y, -z'
3 'x, -y, z'
4 'x, y, z'
5 '-x+1/2, y+1/2, -z'
6 '-x+1/2, -y+1/2, -z'
7 'x+1/2, -y+1/2, z'
8 'x+1/2, y+1/2, z'
loop_
_atom_type_symbol
_atom_type_oxidation_number
Cr0+ 0
Ga0+ 0
loop_
_atom_site_label
_atom_site_type_symbol
_atom_site_symmetry_multiplicity
_atom_site_Wyckoff_symbol
_atom_site_fract_x
_atom_site_fract_y
_atom_site_fract_z
_atom_site_B_iso_or_equiv
_atom_site_occupancy
_atom_site_attached_hydrogens
Cr1 Cr0+ 2 a 0 0 0 0.12 1. 0
Cr2 Cr0+ 4 i 0.5018(4) 0 0.3246(4) 0.24 1. 0
Cr3 Cr0+ 4 i 0.2295(4) 0 0.6531(4) 0.32 1. 0
Cr4 Cr0+ 8 j 0.1408(2) 0.1924(9) -.1493(2) 0.28 1. 0
Ga1 Ga0+ 4 i 0.2803(4) 0 0.0895(4) 0.92 1. 0
Ga2 Ga0+ 4 i 0.0475(3) 0 0.3529(3) 0.65 1. 0
Ga3 Ga0+ 8 j 0.6042(2) 0.2097(6) 0.1526(2) 0.52 1. 0
Ga4 Ga0+ 8 j 0.3487(2) 0.1917(6) 0.4447(2) 0.68 1. 0
#End of TTdata_1824-ICSD