
#(C) 2017 by FIZ Karlsruhe - Leibniz Institute for Information Infrastructure.  All rights reserved.
data_182751-ICSD
_database_code_ICSD 182751
_audit_creation_date 2012-08-01
_chemical_name_systematic 'Copper tungstate'
_chemical_formula_structural 'Cu (W O4)'
_chemical_formula_sum 'Cu1 O4 W1'
_exptl_crystal_density_diffrn 8.39
_cell_measurement_temperature 293.
_cell_measurement_pressure 13400000.
_publ_section_title

;
Structure solution of the high-pressure phase of Cu (W O4) and evolution of
the Jahn-Teller distortion
;
loop_
_citation_id
_citation_journal_full
_citation_year
_citation_journal_volume
_citation_page_first
_citation_page_last
_citation_journal_id_ASTM
primary 'Chemistry of Materials' 2011 23 4220 4226 CMATEX
loop_
_publ_author_name
'Ruiz Fuertes, J.'
'Friedrich, A.'
'Pellicer Porres, J.'
'Errandonea, D.'
'Segura, A.'
'Morgenroth, W.'
'Haussuehl, E.'
'Tu, C.-Y.'
'Polian, A.'
_cell_length_a 4.542(6)
_cell_length_b 5.461(16)
_cell_length_c 4.980(9)
_cell_angle_alpha 90
_cell_angle_beta 86.80(13)
_cell_angle_gamma 90.
_cell_volume 123.33
_cell_formula_units_Z 2
_symmetry_space_group_name_H-M 'P 1 2/c 1'
_symmetry_Int_Tables_number 13
_refine_ls_R_factor_all 0.0308
loop_
_symmetry_equiv_pos_site_id
_symmetry_equiv_pos_as_xyz
1 'x, -y, z+1/2'
2 '-x, -y, -z'
3 '-x, y, -z+1/2'
4 'x, y, z'
loop_
_atom_type_symbol
_atom_type_oxidation_number
W6+ 6
Cu2+ 2
O2- -2
loop_
_atom_site_label
_atom_site_type_symbol
_atom_site_symmetry_multiplicity
_atom_site_Wyckoff_symbol
_atom_site_fract_x
_atom_site_fract_y
_atom_site_fract_z
_atom_site_B_iso_or_equiv
_atom_site_occupancy
_atom_site_attached_hydrogens
W1 W6+ 2 e 0. 0.1867(4) 0.25 0.0074(7) 1 0
Cu1 Cu2+ 2 f 0.5 0.6701(13) 0.25 0.0113(4) 1 0
O1 O2- 4 g 0.253(2) 0.397(5) 0.3852(19) 0.013(2) 1 0
O2 O2- 4 g 0.226(2) 0.897(5) 0.4263(18) 0.013(2) 1 0
loop_
_atom_site_aniso_label
_atom_site_aniso_type_symbol
_atom_site_aniso_U_11
_atom_site_aniso_U_22
_atom_site_aniso_U_33
_atom_site_aniso_U_12
_atom_site_aniso_U_13
_atom_site_aniso_U_23
W1 W6+ 0.0088(3) 0.006(2) 0.0075(3) 0. -0.00131(17) 0.
#End of TTdata_182751-ICSD