
#(C) 2017 by FIZ Karlsruhe - Leibniz Institute for Information Infrastructure.  All rights reserved.
data_182775-ICSD
_database_code_ICSD 182775
_audit_creation_date 2012-08-01
_chemical_name_systematic 'Lanthanum platinum zinc (3/4/4)'
_chemical_formula_structural 'La3 Pt4 Zn4'
_chemical_formula_sum 'La3 Pt4 Zn4'
_chemical_name_structure_type Cu4Zr3Si4
_exptl_crystal_density_diffrn 10.82
_cell_measurement_temperature 293.
_publ_section_title

;
La3 Pd4 Zn4 and La3 Pt4 Zn4 with a different coloring of the Gd3 Cu4 Ge4-type
structure
;
loop_
_citation_id
_citation_journal_full
_citation_year
_citation_journal_volume
_citation_page_first
_citation_page_last
_citation_journal_id_ASTM
primary 'Monatshefte fuer Chemie' 2011 142 973 978 MOCMB7
loop_
_publ_author_name
'Mishra, T.'
'Schwickert, C.'
'Poettgen, R.'
_cell_length_a 14.399(2)
_cell_length_b 7.481(1)
_cell_length_c 4.1566(6)
_cell_angle_alpha 90.
_cell_angle_beta 90.
_cell_angle_gamma 90.
_cell_volume 447.74
_cell_formula_units_Z 2
_symmetry_space_group_name_H-M 'I m m m'
_symmetry_Int_Tables_number 71
_refine_ls_R_factor_all 0.027
loop_
_symmetry_equiv_pos_site_id
_symmetry_equiv_pos_as_xyz
1 'x, y, -z'
2 'x, -y, z'
3 '-x, y, z'
4 '-x, -y, -z'
5 '-x, -y, z'
6 '-x, y, -z'
7 'x, -y, -z'
8 'x, y, z'
9 'x+1/2, y+1/2, -z+1/2'
10 'x+1/2, -y+1/2, z+1/2'
11 '-x+1/2, y+1/2, z+1/2'
12 '-x+1/2, -y+1/2, -z+1/2'
13 '-x+1/2, -y+1/2, z+1/2'
14 '-x+1/2, y+1/2, -z+1/2'
15 'x+1/2, -y+1/2, -z+1/2'
16 'x+1/2, y+1/2, z+1/2'
loop_
_atom_type_symbol
_atom_type_oxidation_number
La0+ 0
Pt0+ 0
Zn0+ 0
loop_
_atom_site_label
_atom_site_type_symbol
_atom_site_symmetry_multiplicity
_atom_site_Wyckoff_symbol
_atom_site_fract_x
_atom_site_fract_y
_atom_site_fract_z
_atom_site_B_iso_or_equiv
_atom_site_occupancy
_atom_site_attached_hydrogens
La1 La0+ 2 d 0 0.5 0 0.0110(3) 1. 0
La2 La0+ 4 e 0.12687(8) 0 0 0.0109(2) 1. 0
Pt1 Pt0+ 4 f 0.21694(5) 0.5 0 0.0122(2) 1. 0
Pt2 Pt0+ 4 h 0 0.19768(8) 0.5 0.0102(2) 1. 0
Zn1 Zn0+ 8 n 0.32626(12) 0.19240(19) 0 0.0136(3) 1. 0
loop_
_atom_site_aniso_label
_atom_site_aniso_type_symbol
_atom_site_aniso_U_11
_atom_site_aniso_U_22
_atom_site_aniso_U_33
_atom_site_aniso_U_12
_atom_site_aniso_U_13
_atom_site_aniso_U_23
La1 La0+ 0.0119(7) 0.0099(6) 0.0113(6) 0. 0. 0.
La2 La0+ 0.0103(5) 0.0132(4) 0.0093(4) 0. 0. 0.
Pt1 Pt0+ 0.0111(4) 0.0169(3) 0.0087(3) 0. 0. 0.
Pt2 Pt0+ 0.0097(3) 0.0104(3) 0.0104(3) 0. 0. 0.
Zn1 Zn0+ 0.0135(8) 0.0131(6) 0.0141(6) -0.0040(5) 0. 0.
#End of TTdata_182775-ICSD