
#(C) 2017 by FIZ Karlsruhe - Leibniz Institute for Information Infrastructure.  All rights reserved.
data_183207-ICSD
_database_code_ICSD 183207
_audit_creation_date 2012-08-01
_chemical_name_systematic 'Dicesium sulfide'
_chemical_formula_structural 'Cs2 S'
_chemical_formula_sum 'Cs2 S1'
_chemical_name_structure_type TiNiSi-MgSrSi
_exptl_crystal_density_diffrn 4.17
_publ_section_title

;
Structural behaviour of alkaline sulfides under compression: high-pressure
experimental study on Cs2 S
;
loop_
_citation_id
_citation_journal_full
_citation_year
_citation_journal_volume
_citation_page_first
_citation_page_last
_citation_journal_id_ASTM
primary 'Journal of Chemical Physics' 2011 135 054511-1 054511-8 JCPSA6
loop_
_publ_author_name
'Santamaria Perez, D.'
'Vegas, A.'
'Muehle, C.'
'Jansen, M.'
_cell_length_a 8.541(1)
_cell_length_b 5.365(1)
_cell_length_c 10.354(2)
_cell_angle_alpha 90.
_cell_angle_beta 90.
_cell_angle_gamma 90.
_cell_volume 474.45
_cell_formula_units_Z 4
_symmetry_space_group_name_H-M 'P n m a'
_symmetry_Int_Tables_number 62
loop_
_symmetry_equiv_pos_site_id
_symmetry_equiv_pos_as_xyz
1 'x+1/2, y, -z+1/2'
2 'x, -y+1/2, z'
3 '-x+1/2, y+1/2, z+1/2'
4 '-x, -y, -z'
5 '-x+1/2, -y, z+1/2'
6 '-x, y+1/2, -z'
7 'x+1/2, -y+1/2, -z+1/2'
8 'x, y, z'
loop_
_atom_type_symbol
_atom_type_oxidation_number
Cs1+ 1
S2- -2
loop_
_atom_site_label
_atom_site_type_symbol
_atom_site_symmetry_multiplicity
_atom_site_Wyckoff_symbol
_atom_site_fract_x
_atom_site_fract_y
_atom_site_fract_z
_atom_site_B_iso_or_equiv
_atom_site_occupancy
_atom_site_attached_hydrogens
Cs1 Cs1+ 4 c 0.0242(3) 0.25 0.1764(2) . 1. 0
Cs2 Cs1+ 4 c 0.1516(3) 0.25 0.5746(3) . 1. 0
S1 S2- 4 c 0.2420(14) 0.25 0.8944(10) . 1. 0
#End of TTdata_183207-ICSD