
#(C) 2017 by FIZ Karlsruhe - Leibniz Institute for Information Infrastructure.  All rights reserved.
data_183490-ICSD
_database_code_ICSD 183490
_audit_creation_date 2012-08-01
_chemical_name_systematic 'Hafnium gallium stannide (5/1/3)'
_chemical_formula_structural 'Hf5 Ga Sn3'
_chemical_formula_sum 'Ga1 Hf5 Sn3'
_chemical_name_structure_type Ga4Ti5
_exptl_crystal_density_diffrn 11.93
_cell_measurement_temperature 293.
_publ_section_title 'Interstitial solid solution Hf5 Gax Sn3 (x = 0 - 1)'
loop_
_citation_id
_citation_journal_full
_citation_year
_citation_journal_volume
_citation_page_first
_citation_page_last
_citation_journal_id_ASTM
primary 'Journal of Alloys and Compounds' 2012 512 246 251 JALCEU
loop_
_publ_author_name
'Voznyak, I.'
'Tokaychuk, Ya.'
'Hlukhyy, V.'
'Faessler, T.F.'
'Gladyshevskii, R.'
_cell_length_a 8.5564(12)
_cell_length_b 8.5564(12)
_cell_length_c 5.7859(12)
_cell_angle_alpha 90.
_cell_angle_beta 90.
_cell_angle_gamma 120.
_cell_volume 366.85
_cell_formula_units_Z 2
_symmetry_space_group_name_H-M 'P 63/m c m'
_symmetry_Int_Tables_number 193
_refine_ls_R_factor_all 0.0163
loop_
_symmetry_equiv_pos_site_id
_symmetry_equiv_pos_as_xyz
1 '-x, -x+y, -z+1/2'
2 'x-y, -y, -z+1/2'
3 'y, x, -z+1/2'
4 '-x+y, -x, -z+1/2'
5 '-y, x-y, -z+1/2'
6 'x, y, -z+1/2'
7 'x, x-y, z+1/2'
8 '-x+y, y, z+1/2'
9 '-y, -x, z+1/2'
10 'x-y, x, z+1/2'
11 'y, -x+y, z+1/2'
12 '-x, -y, z+1/2'
13 'x, x-y, -z'
14 '-x+y, y, -z'
15 '-y, -x, -z'
16 'x-y, x, -z'
17 'y, -x+y, -z'
18 '-x, -y, -z'
19 '-x, -x+y, z'
20 'x-y, -y, z'
21 'y, x, z'
22 '-x+y, -x, z'
23 '-y, x-y, z'
24 'x, y, z'
loop_
_atom_type_symbol
_atom_type_oxidation_number
Hf0+ 0
Sn0+ 0
Ga0+ 0
loop_
_atom_site_label
_atom_site_type_symbol
_atom_site_symmetry_multiplicity
_atom_site_Wyckoff_symbol
_atom_site_fract_x
_atom_site_fract_y
_atom_site_fract_z
_atom_site_B_iso_or_equiv
_atom_site_occupancy
_atom_site_attached_hydrogens
Hf1 Hf0+ 6 g 0.26806(5) 0 0.25 0.00560(16) 1. 0
Hf2 Hf0+ 4 d 0.3333 0.6667 0 0.00358(16) 1. 0
Sn1 Sn0+ 6 g 0.61101(8) 0 0.25 0.00411(19) 1. 0
Ga1 Ga0+ 2 b 0 0 0 0.0027(4) 1. 0
loop_
_atom_site_aniso_label
_atom_site_aniso_type_symbol
_atom_site_aniso_U_11
_atom_site_aniso_U_22
_atom_site_aniso_U_33
_atom_site_aniso_U_12
_atom_site_aniso_U_13
_atom_site_aniso_U_23
Hf1 Hf0+ 0.00553(19) 0.0051(2) 0.0060(2) 0.00254(12) 0. 0.
Hf2 Hf0+ 0.00391(18) 0.00391(18) 0.0029(3) 0.00195(9) 0. 0.
Sn1 Sn0+ 0.0036(3) 0.0029(4) 0.0056(3) 0.00145(18) 0. 0.
Ga1 Ga0+ 0.0018(5) 0.0018(5) 0.0047(9) 0.0009(2) 0. 0.
#End of TTdata_183490-ICSD