
#(C) 2017 by FIZ Karlsruhe - Leibniz Institute for Information Infrastructure.  All rights reserved.
data_183583-ICSD
_database_code_ICSD 183583
_audit_creation_date 2012-08-01
_chemical_name_systematic 'Calcium rhodate(IV) - HP'
_chemical_formula_structural 'Ca (Rh O3)'
_chemical_formula_sum 'Ca1 O3 Rh1'
_exptl_crystal_density_diffrn 5.61
_publ_section_title

;
Crystal structure of Ca Rh O3 polymorph: high-pressure intermediate phase
between perovskite and post-perovskite
;
loop_
_citation_id
_citation_journal_full
_citation_year
_citation_journal_volume
_citation_page_first
_citation_page_last
_citation_journal_id_ASTM
primary 'American Mineralogist' 2012 97 159 163 AMMIAY
loop_
_publ_author_name
'Shirako, Y.'
'Kojitani, H.'
'Oganov, A.R.'
'Fujino, K.'
'Miura, H.'
'Mori, D.'
'Inaguma, Y.'
'Yamaura, K.'
'Akaogi, M.'
_cell_length_a 12.5114(1)
_cell_length_b 3.1241(1)
_cell_length_c 8.8579(1)
_cell_angle_alpha 90.
_cell_angle_beta 103.951(1)
_cell_angle_gamma 90.
_cell_volume 336.01
_cell_formula_units_Z 6
_symmetry_space_group_name_H-M 'P 1 21/m 1'
_symmetry_Int_Tables_number 11
_refine_ls_R_factor_all 0.0623
loop_
_symmetry_equiv_pos_site_id
_symmetry_equiv_pos_as_xyz
1 'x, -y+1/2, z'
2 '-x, -y, -z'
3 '-x, y+1/2, -z'
4 'x, y, z'
loop_
_atom_type_symbol
_atom_type_oxidation_number
O2- -2
Ca2+ 2
Rh4+ 4
loop_
_atom_site_label
_atom_site_type_symbol
_atom_site_symmetry_multiplicity
_atom_site_Wyckoff_symbol
_atom_site_fract_x
_atom_site_fract_y
_atom_site_fract_z
_atom_site_B_iso_or_equiv
_atom_site_occupancy
_atom_site_attached_hydrogens
O1 O2- 2 e 0.8215(6) 0.75 0.8756(10) 1. 1. 0
O2 O2- 2 e 0.6152(6) 0.25 0.7842(9) 1. 1. 0
O3 O2- 2 e 0.5488(6) 0.25 0.1325(9) 1. 1. 0
O4 O2- 2 e 0.5535(6) 0.25 0.4159(10) 1. 1. 0
O5 O2- 2 e 0.7031(6) 0.75 0.3271(10) 1. 1. 0
O6 O2- 2 e 0.8115(6) 0.25 0.5802(9) 1. 1. 0
O7 O2- 2 e 0.7878(6) 0.25 0.1278(9) 1. 1. 0
O8 O2- 2 e 0.9118(6) 0.75 0.3879(9) 1. 1. 0
O9 O2- 2 e 0.9890(6) 0.75 0.1170(9) 1. 1. 0
Ca1 Ca2+ 2 e 0.6718(2) 0.75 0.6175(3) 0.88(5) 1. 0
Ca2 Ca2+ 2 e 0.6505(2) 0.75 0.9941(3) 0.76(5) 1. 0
Ca3 Ca2+ 2 e 0.0521(2) 0.25 0.3318(3) 0.91(5) 1. 0
Rh1 Rh4+ 2 e 0.54318(8) 0.75 0.27037(13) 0.34(2) 1. 0
Rh2 Rh4+ 2 e 0.89248(9) 0.25 0.99875(12) 0.35(2) 1. 0
Rh3 Rh4+ 2 e 0.19426(8) 0.75 0.64612(13) 0.39(2) 1. 0
#End of TTdata_183583-ICSD