
data_1838-ICSD
_database_code_ICSD 1838
_audit_creation_date 1980-01-01
_audit_update_record 2010-08-01
_chemical_name_systematic 'Barium strontium tetraferrate(III)'
_chemical_formula_structural 'Ba Sr (Fe4 O8)'
_chemical_formula_sum 'Ba1 Fe4 O8 Sr1'
_chemical_name_structure_type BaSrFe4P8
_exptl_crystal_density_diffrn 4.59
_publ_section_title 'La structure cristalline de  Ba Sr Fe4 O8'
loop_
_citation_id
_citation_journal_full
_citation_year
_citation_journal_volume
_citation_page_first
_citation_page_last
_citation_journal_id_ASTM
primary 'Acta Crystallographica B (24,1968-38,1982)' 1975 31 665 668 ACBCAR
loop_
_publ_author_name
'Herman-Ronzaud, D.'
'Bachmann, M.'
_cell_length_a 5.450(2)
_cell_length_b 5.450(2)
_cell_length_c 8.101(3)
_cell_angle_alpha 90.
_cell_angle_beta 90.
_cell_angle_gamma 120.
_cell_volume 208.38
_cell_formula_units_Z 1
_symmetry_space_group_name_H-M 'P -3 1 m'
_symmetry_Int_Tables_number 162
_refine_ls_R_factor_all 0.024
loop_
_symmetry_equiv_pos_site_id
_symmetry_equiv_pos_as_xyz
1 '-x+y, y, -z'
2 'x, x-y, -z'
3 '-y, -x, -z'
4 'x-y, x, -z'
5 'y, -x+y, -z'
6 '-x, -y, -z'
7 'x-y, -y, z'
8 '-x, -x+y, z'
9 'y, x, z'
10 '-x+y, -x, z'
11 '-y, x-y, z'
12 'x, y, z'
loop_
_atom_type_symbol
_atom_type_oxidation_number
Ba2+ 2
Sr2+ 2
Fe3+ 3
O2- -2
loop_
_atom_site_label
_atom_site_type_symbol
_atom_site_symmetry_multiplicity
_atom_site_Wyckoff_symbol
_atom_site_fract_x
_atom_site_fract_y
_atom_site_fract_z
_atom_site_B_iso_or_equiv
_atom_site_occupancy
_atom_site_attached_hydrogens
Ba1 Ba2+ 1 a 0 0 0 . 1. 0
Sr1 Sr2+ 1 b 0 0 0.5 . 1. 0
Fe1 Fe3+ 4 h 0.3333 0.6667 0.225(3) . 1. 0
O1 O2- 2 c 0.3333 0.6667 0 . 1. 0
O2 O2- 6 k 0.346(6) 0 0.280(4) . 1. 0
