
data_184000-ICSD
_database_code_ICSD 184000
_audit_creation_date 2012-08-01
_chemical_name_systematic 'Sodium germanium phosphide (1/3/3)'
_chemical_formula_structural 'Na Ge3 P3'
_chemical_formula_sum 'Ge3 Na1 P3'
_exptl_crystal_density_diffrn 3.52
_cell_measurement_temperature 93.
_cell_length_a 3.6276(7)
_cell_length_b 8.407(2)
_cell_length_c 10.332(2)
_cell_angle_alpha 90.
_cell_angle_beta 90.
_cell_angle_gamma 90.
_cell_volume 315.1
_cell_formula_units_Z 2
_symmetry_space_group_name_H-M 'P m c 21'
_symmetry_Int_Tables_number 26
_refine_ls_R_factor_all 0.0397
loop_
_symmetry_equiv_pos_site_id
_symmetry_equiv_pos_as_xyz
1 'x, -y, z+1/2'
2 '-x, -y, z+1/2'
3 '-x, y, z'
4 'x, y, z'
loop_
_atom_type_symbol
_atom_type_oxidation_number
Na1+ 1
Ge4+ 4
Ge1+ 1
Ge3+ 3
P3- -3
loop_
_atom_site_label
_atom_site_type_symbol
_atom_site_symmetry_multiplicity
_atom_site_Wyckoff_symbol
_atom_site_fract_x
_atom_site_fract_y
_atom_site_fract_z
_atom_site_B_iso_or_equiv
_atom_site_occupancy
_atom_site_attached_hydrogens
Na1 Na1+ 2 a 0. 0.3700(7) 0.0012(7) 0.0479(19) 1 0
Ge1 Ge4+ 2 b 0.5 0.18517(15) 0.41319(11) 0.0122(3) 1 0
Ge2 Ge1+ 2 a 0. 0.70575(18) 0.22415(13) 0.0178(4) 1 0
Ge3 Ge3+ 2 a 0. 0.00306(18) 0.14629(14) 0.0128(3) 1 0
P1 P3- 2 a 0. 0.2346(4) 0.2770(3) 0.0124(7) 1 0
P2 P3- 2 b 0.5 0.0677(4) 0.0064(3) 0.0140(7) 1 0
P3 P3- 2 b 0.5 0.6288(4) 0.0782(3) 0.0177(8) 1 0
loop_
_atom_site_aniso_label
_atom_site_aniso_type_symbol
_atom_site_aniso_U_11
_atom_site_aniso_U_22
_atom_site_aniso_U_33
_atom_site_aniso_U_12
_atom_site_aniso_U_13
_atom_site_aniso_U_23
Na1 Na1+ 0.053(5) 0.033(4) 0.058(5) 0. 0. -0.006(4)
Ge1 Ge4+ 0.0084(7) 0.0170(7) 0.0110(7) 0. 0. 0.0012(6)
Ge2 Ge1+ 0.0093(8) 0.0235(8) 0.0205(8) 0. 0. -0.0048(7)
Ge3 Ge3+ 0.0078(6) 0.0173(7) 0.0133(6) 0. 0. -0.0019(6)
P1 P3- 0.0106(18) 0.0158(18) 0.0107(15) 0. 0. -0.0028(13)
P2 P3- 0.0091(17) 0.021(2) 0.0117(16) 0. 0. -0.0061(14)
P3 P3- 0.023(2) 0.0172(19) 0.0128(17) 0. 0. 0.0030(14)
