
#(C) 2017 by FIZ Karlsruhe - Leibniz Institute for Information Infrastructure.  All rights reserved.
data_184677-ICSD
_database_code_ICSD 184677
_audit_creation_date 2012-08-01
_chemical_name_systematic 'Yttrium barium copper oxide (1/2/3/7)'
_chemical_formula_structural 'Y Ba2 Cu3 O7'
_chemical_formula_sum 'Ba2 Cu3 O7 Y1'
_chemical_name_structure_type YBa2Cu3O6+x(orh)
_exptl_crystal_density_diffrn 6.41
_cell_measurement_temperature 293.
_publ_section_title

;
Effect of double substitution on structural and magnetic properties of Y1-x
Cax Ba2 (Cu1-y Mgy)3 O7-d
;
_publ_section_comment 'Cell and Type only determined'
loop_
_citation_id
_citation_journal_full
_citation_year
_citation_journal_volume
_citation_page_first
_citation_page_last
_citation_journal_id_ASTM
primary 'Physica C, Superconductivity' 2012 477 36 42 PHYCE6
loop_
_publ_author_name
'Attaf, S.'
'Mosbah, M.F.'
'Fittipaldi, R.'
'Zola, D.'
'Pace, S.'
'Vecchione, A.'
_cell_length_a 3.8159(4)
_cell_length_b 3.8789(6)
_cell_length_c 11.669(2)
_cell_angle_alpha 90.
_cell_angle_beta 90.
_cell_angle_gamma 90.
_cell_volume 172.72
_cell_formula_units_Z 1
_symmetry_space_group_name_H-M 'P m m m'
_symmetry_Int_Tables_number 47
loop_
_symmetry_equiv_pos_site_id
_symmetry_equiv_pos_as_xyz
1 'x, -y, z'
2 '-x, y, z'
3 'x, y, -z'
4 '-x, -y, -z'
5 '-x, y, -z'
6 'x, -y, -z'
7 '-x, -y, z'
8 'x, y, z'
loop_
_atom_type_symbol
_atom_type_oxidation_number
Y3+ 3
Ba2+ 2
Cu2+ 2.33
O2- -2
loop_
_atom_site_label
_atom_site_type_symbol
_atom_site_symmetry_multiplicity
_atom_site_Wyckoff_symbol
_atom_site_fract_x
_atom_site_fract_y
_atom_site_fract_z
_atom_site_B_iso_or_equiv
_atom_site_occupancy
_atom_site_attached_hydrogens
Y1 Y3+ 1 h 0.5 0.5 0.5 . 1. 0
Ba1 Ba2+ 2 t 0.5 0.5 0.186 . 1. 0
Cu1 Cu2+ 1 a 0 0 0 . 1. 0
Cu2 Cu2+ 2 q 0 0 0.355 . 1. 0
O1 O2- 1 e 0 0.5 0 . 1. 0
O2 O2- 2 q 0 0 0.155 . 1. 0
O3 O2- 2 r 0 0.5 0.379 . 1. 0
O4 O2- 2 s 0.5 0 0.379 . 1. 0
#End of TTdata_184677-ICSD