
#(C) 2017 by FIZ Karlsruhe - Leibniz Institute for Information Infrastructure.  All rights reserved.
data_186072-ICSD
_database_code_ICSD 186072
_audit_creation_date 2013-02-01
_chemical_name_systematic 'Dithallium zirconium trisulfide'
_chemical_formula_structural 'Tl2 Zr S3'
_chemical_formula_sum 'S3 Tl2 Zr1'
_chemical_name_structure_type TlCuTiTe3
_exptl_crystal_density_diffrn 6.52
_cell_measurement_temperature 293.
_publ_section_title

;
Structures and properties of the ternary thallium chalcogenides Tl2 M Q3 (M =
Zr, Hf; Q = S, Se)
;
loop_
_citation_id
_citation_journal_full
_citation_year
_citation_journal_volume
_citation_page_first
_citation_page_last
_citation_journal_id_ASTM
primary 'Dalton Transactions' 2012 41 9646 9650 DTARAF
loop_
_publ_author_name
'Raj Sankar, C.'
'Kuropatwa, B.A.'
'Assoud, A.'
'Kleinke, H.'
_cell_length_a 7.9159(10)
_cell_length_b 3.7651(5)
_cell_length_c 10.2756(13)
_cell_angle_alpha 90.
_cell_angle_beta 97.476(2)
_cell_angle_gamma 90.
_cell_volume 303.65
_cell_formula_units_Z 2
_symmetry_space_group_name_H-M 'P 1 21/m 1'
_symmetry_Int_Tables_number 11
_refine_ls_R_factor_all 0.0269
loop_
_symmetry_equiv_pos_site_id
_symmetry_equiv_pos_as_xyz
1 'x, -y+1/2, z'
2 '-x, -y, -z'
3 '-x, y+1/2, -z'
4 'x, y, z'
loop_
_atom_type_symbol
_atom_type_oxidation_number
Tl1+ 1
Zr4+ 4
S2- -2
loop_
_atom_site_label
_atom_site_type_symbol
_atom_site_symmetry_multiplicity
_atom_site_Wyckoff_symbol
_atom_site_fract_x
_atom_site_fract_y
_atom_site_fract_z
_atom_site_B_iso_or_equiv
_atom_site_occupancy
_atom_site_attached_hydrogens
Tl1 Tl1+ 2 e 0.06374(5) 0.25 0.66029(4) 0.02600(14) 1 0
Tl2 Tl1+ 2 e 0.75009(5) 0.25 0.00227(3) 0.02429(14) 1 0
Zr1 Zr4+ 2 e 0.41111(10) 0.25 0.33548(7) 0.01063(17) 1 0
S1 S2- 2 e 0.1362(3) 0.25 0.1927(2) 0.0161(5) 1 0
S2 S2- 2 e 0.4565(3) 0.25 0.7868(2) 0.0131(4) 1 0
S3 S2- 2 e 0.6888(3) 0.25 0.51506(19) 0.0105(4) 1 0
loop_
_atom_site_aniso_label
_atom_site_aniso_type_symbol
_atom_site_aniso_U_11
_atom_site_aniso_U_22
_atom_site_aniso_U_33
_atom_site_aniso_U_12
_atom_site_aniso_U_13
_atom_site_aniso_U_23
Tl1 Tl1+ 0.0263(2) 0.0236(3) 0.0279(2) 0. 0.00271(16) 0.
Tl2 Tl1+ 0.0291(2) 0.0243(3) 0.01895(18) 0. 0.00098(14) 0.
Zr1 Zr4+ 0.0111(4) 0.0097(4) 0.0108(3) 0. 0.0005(3) 0.
S1 S2- 0.0147(10) 0.0161(12) 0.0161(9) 0. -0.0035(8) 0.
S2 S2- 0.0162(10) 0.0095(11) 0.0141(9) 0. 0.0045(8) 0.
S3 S2- 0.0100(9) 0.0108(11) 0.0109(8) 0. 0.0015(7) 0.
#End of TTdata_186072-ICSD