
#(C) 2017 by FIZ Karlsruhe - Leibniz Institute for Information Infrastructure.  All rights reserved.
data_187151-ICSD
_database_code_ICSD 187151
_audit_creation_date 2013-08-01
_chemical_name_systematic 'Magnesium silver antimonide'
_chemical_formula_structural 'Mg Ag Sb'
_chemical_formula_sum 'Ag1 Mg1 Sb1'
_exptl_crystal_density_diffrn 6.31
_cell_measurement_temperature 293.
_publ_section_title

;
Ab initio determination of crystal structures of the thermoelectric material
Mg Ag Sb
;
loop_
_citation_id
_citation_journal_full
_citation_year
_citation_journal_volume
_citation_page_first
_citation_page_last
_citation_journal_id_ASTM
primary 'Physical Review, Serie 3. B - Condensed Matter (18,1978-)' 2012 85
144120-1 144120-7 PRBMDO
loop_
_publ_author_name
'Kirkham, Melanie J.'
'dos Santos, Antonio M.'
'Rawn, Claudia J.'
'Lara-Curzio, Edgar'
'Sharp, Jeff W.'
'Thompson, Alan J.'
_cell_length_a 9.1761(4)
_cell_length_b 9.1761(4)
_cell_length_c 12.6960(7)
_cell_angle_alpha 90.
_cell_angle_beta 90.
_cell_angle_gamma 90.
_cell_volume 1069.01
_cell_formula_units_Z 16
_symmetry_space_group_name_H-M 'I -4 c 2'
_symmetry_Int_Tables_number 120
_refine_ls_R_factor_all 0.0164
loop_
_symmetry_equiv_pos_site_id
_symmetry_equiv_pos_as_xyz
1 'y, x, -z+1/2'
2 '-y, -x, -z+1/2'
3 'y, -x, -z'
4 '-y, x, -z'
5 'x, -y, z+1/2'
6 '-x, y, z+1/2'
7 '-x, -y, z'
8 'x, y, z'
9 'y+1/2, x+1/2, -z'
10 '-y+1/2, -x+1/2, -z'
11 'y+1/2, -x+1/2, -z+1/2'
12 '-y+1/2, x+1/2, -z+1/2'
13 'x+1/2, -y+1/2, z'
14 '-x+1/2, y+1/2, z'
15 '-x+1/2, -y+1/2, z+1/2'
16 'x+1/2, y+1/2, z+1/2'
loop_
_atom_type_symbol
_atom_type_oxidation_number
Mg2+ 2
Ag1+ 1
Sb3- -3
loop_
_atom_site_label
_atom_site_type_symbol
_atom_site_symmetry_multiplicity
_atom_site_Wyckoff_symbol
_atom_site_fract_x
_atom_site_fract_y
_atom_site_fract_z
_atom_site_B_iso_or_equiv
_atom_site_occupancy
_atom_site_attached_hydrogens
Mg1 Mg2+ 16 i -0.036(3) 0.296(2) 0.096(1) . 1. 0
Ag1 Ag1+ 4 a 0 0 0.25 . 1. 0
Ag2 Ag1+ 4 b 0 0 0 . 1. 0
Ag3 Ag1+ 8 e 0.2244(7) 0.2244(7) 0.25 . 1. 0
Sb1 Sb3- 16 i 0.2363(5) 0.4749(7) 0.1203(4) . 1. 0
#End of TTdata_187151-ICSD