
data_188064-ICSD
_database_code_ICSD 188064
_audit_creation_date 2014-02-01
_chemical_name_systematic 'Nickel phosphide (1/1)'
_chemical_formula_structural 'Ni P'
_chemical_formula_sum 'Ni1 P1'
_chemical_name_structure_type Na2SiO3
_exptl_crystal_density_diffrn 6.8
_cell_measurement_pressure 28500000.
_cell_length_a 9.695(6)
_cell_length_b 5.7101(9)
_cell_length_c 4.7438(6)
_cell_angle_alpha 90.
_cell_angle_beta 90.
_cell_angle_gamma 90.
_cell_volume 262.61
_cell_formula_units_Z 12
_symmetry_space_group_name_H-M 'C m c 21'
_symmetry_Int_Tables_number 36
_refine_ls_R_factor_all 0.0478
loop_
_symmetry_equiv_pos_site_id
_symmetry_equiv_pos_as_xyz
1 'x, -y, z+1/2'
2 '-x, -y, z+1/2'
3 '-x, y, z'
4 'x, y, z'
5 'x+1/2, -y+1/2, z+1/2'
6 '-x+1/2, -y+1/2, z+1/2'
7 '-x+1/2, y+1/2, z'
8 'x+1/2, y+1/2, z'
loop_
_atom_type_symbol
_atom_type_oxidation_number
Ni0+ 0
P0+ 0
loop_
_atom_site_label
_atom_site_type_symbol
_atom_site_symmetry_multiplicity
_atom_site_Wyckoff_symbol
_atom_site_fract_x
_atom_site_fract_y
_atom_site_fract_z
_atom_site_B_iso_or_equiv
_atom_site_occupancy
_atom_site_attached_hydrogens
Ni1 Ni0+ 8 b 0.3521(2) 0.0531(1) 0.3802(2) 0.008(1) 1. 0
Ni2 Ni0+ 4 a 0 0.0587(2) 0.8583(3) 0.009(1) 1. 0
P1 P0+ 8 b 0.3380(5) 0.3197(3) 0.0535(5) 0.009(2) 1. 0
P2 P0+ 4 a 0 0.3086(5) 0.2030(8) 0.010(2) 1. 0
loop_
_atom_site_aniso_label
_atom_site_aniso_type_symbol
_atom_site_aniso_U_11
_atom_site_aniso_U_22
_atom_site_aniso_U_33
_atom_site_aniso_U_12
_atom_site_aniso_U_13
_atom_site_aniso_U_23
Ni1 Ni0+ 0.011(3) 0.007(1) 0.006(1) 0.002(1) 0.001(1) 0.000(1)
Ni2 Ni0+ 0.016(4) 0.006(1) 0.005(1) 0. 0. 0.000(1)
P1 P0+ 0.016(7) 0.006(1) 0.007(1) -0.001(1) 0.001(1) 0.001(1)
P2 P0+ 0.019(7) 0.004(1) 0.007(1) 0. 0. 0.000(1)
