
#(C) 2017 by FIZ Karlsruhe - Leibniz Institute for Information Infrastructure.  All rights reserved.
data_188688-ICSD
_database_code_ICSD 188688
_audit_creation_date 2014-02-01
_chemical_name_systematic 'Zirconium copper bismuth (5/1/3)'
_chemical_formula_structural 'Zr5 Cu Bi3'
_chemical_formula_sum 'Bi3 Cu1 Zr5'
_chemical_name_structure_type Ga4Ti5
_exptl_crystal_density_diffrn 9.27
_cell_measurement_temperature 293.
_publ_section_title 'Pentazirconium copper tribismuth'
loop_
_citation_id
_citation_journal_full
_citation_year
_citation_journal_volume
_citation_page_first
_citation_page_last
_citation_journal_id_ASTM
primary 'Acta Crystallographica, Section E. Structure Reports Online' 2013 69
i51 i51 ACSEBH
loop_
_publ_author_name
'Agnieszka Balinska'
'Ivan Tarasiuk'
'Volodymyr Pavlyuk'
_cell_length_a 8.8712(4)
_cell_length_b 8.8712(4)
_cell_length_c 6.0246(3)
_cell_angle_alpha 90.
_cell_angle_beta 90.
_cell_angle_gamma 120.
_cell_volume 410.6
_cell_formula_units_Z 2
_symmetry_space_group_name_H-M 'P 63/m c m'
_symmetry_Int_Tables_number 193
_refine_ls_R_factor_all 0.0229
loop_
_symmetry_equiv_pos_site_id
_symmetry_equiv_pos_as_xyz
1 '-x, -x+y, -z+1/2'
2 'x-y, -y, -z+1/2'
3 'y, x, -z+1/2'
4 '-x+y, -x, -z+1/2'
5 '-y, x-y, -z+1/2'
6 'x, y, -z+1/2'
7 'x, x-y, z+1/2'
8 '-x+y, y, z+1/2'
9 '-y, -x, z+1/2'
10 'x-y, x, z+1/2'
11 'y, -x+y, z+1/2'
12 '-x, -y, z+1/2'
13 'x, x-y, -z'
14 '-x+y, y, -z'
15 '-y, -x, -z'
16 'x-y, x, -z'
17 'y, -x+y, -z'
18 '-x, -y, -z'
19 '-x, -x+y, z'
20 'x-y, -y, z'
21 'y, x, z'
22 '-x+y, -x, z'
23 '-y, x-y, z'
24 'x, y, z'
loop_
_atom_type_symbol
_atom_type_oxidation_number
Bi0+ 0
Zr0+ 0
Cu0+ 0
loop_
_atom_site_label
_atom_site_type_symbol
_atom_site_symmetry_multiplicity
_atom_site_Wyckoff_symbol
_atom_site_fract_x
_atom_site_fract_y
_atom_site_fract_z
_atom_site_B_iso_or_equiv
_atom_site_occupancy
_atom_site_attached_hydrogens
Bi1 Bi0+ 6 g 0.63082(6) 0.63082(6) 0.25 0.00715(19) 1 0
Zr1 Zr0+ 6 g 0.26831(17) 0.26831(17) 0.25 0.0083(3) 1 0
Zr2 Zr0+ 4 d 0.6667 0.3333 0. 0.0103(4) 1 0
Cu1 Cu0+ 2 b 0. 0. 0. 0.0102(10) 1 0
loop_
_atom_site_aniso_label
_atom_site_aniso_type_symbol
_atom_site_aniso_U_11
_atom_site_aniso_U_22
_atom_site_aniso_U_33
_atom_site_aniso_U_12
_atom_site_aniso_U_13
_atom_site_aniso_U_23
Bi1 Bi0+ 0.0060(2) 0.0060(2) 0.0098(3) 0.0033(2) 0. 0.
Zr1 Zr0+ 0.0075(4) 0.0075(4) 0.0102(8) 0.0039(5) 0. 0.
Zr2 Zr0+ 0.0132(7) 0.0132(7) 0.0045(11) 0.0066(3) 0. 0.
Cu1 Cu0+ 0.0106(14) 0.0106(14) 0.009(3) 0.0053(7) 0. 0.
#End of TTdata_188688-ICSD