
data_188764-ICSD
_database_code_ICSD 188764
_audit_creation_date 2014-02-01
_chemical_name_systematic 'Zinc mercury(II) tetrakis(selenocyanate)'
_chemical_formula_structural 'Hg Zn (N C Se)4'
_chemical_formula_sum 'C4 Hg1 N4 Se4 Zn1'
_chemical_name_structure_type CoHg(SCN)4
_exptl_crystal_density_diffrn 3.82
_cell_measurement_temperature 293.
_cell_length_a 11.27160(10)
_cell_length_b 11.27160(10)
_cell_length_c 4.69810(10)
_cell_angle_alpha 90.
_cell_angle_beta 90.
_cell_angle_gamma 90.
_cell_volume 596.89
_cell_formula_units_Z 2
_symmetry_space_group_name_H-M 'I -4'
_symmetry_Int_Tables_number 82
_refine_ls_R_factor_all 0.026
loop_
_symmetry_equiv_pos_site_id
_symmetry_equiv_pos_as_xyz
1 '-y, x, -z'
2 'y, -x, -z'
3 '-x, -y, z'
4 'x, y, z'
5 '-y+1/2, x+1/2, -z+1/2'
6 'y+1/2, -x+1/2, -z+1/2'
7 '-x+1/2, -y+1/2, z+1/2'
8 'x+1/2, y+1/2, z+1/2'
loop_
_atom_type_symbol
_atom_type_oxidation_number
Hg2+ 2
Se0+ 0
Zn2+ 2
N1- -1
C0+ 0
loop_
_atom_site_label
_atom_site_type_symbol
_atom_site_symmetry_multiplicity
_atom_site_Wyckoff_symbol
_atom_site_fract_x
_atom_site_fract_y
_atom_site_fract_z
_atom_site_B_iso_or_equiv
_atom_site_occupancy
_atom_site_attached_hydrogens
Hg1 Hg2+ 2 a 0. 0. 0. 0.02909(11) 1 0
Se1 Se0+ 8 g 0.12160(4) 0.15390(4) 0.31572(11) 0.03115(13) 1 0
Zn1 Zn2+ 2 d 0. 0.5 -0.25 0.0289(2) 1 0
N1 N1- 8 g 0.0462(4) 0.3643(3) -0.0118(16) 0.0374(9) 1 0
C1 C0+ 8 g 0.0756(4) 0.2818(4) 0.1106(10) 0.0280(9) 1 0
loop_
_atom_site_aniso_label
_atom_site_aniso_type_symbol
_atom_site_aniso_U_11
_atom_site_aniso_U_22
_atom_site_aniso_U_33
_atom_site_aniso_U_12
_atom_site_aniso_U_13
_atom_site_aniso_U_23
Hg1 Hg2+ 0.02405(11) 0.02405(11) 0.0392(2) 0. 0. 0.
Se1 Se0+ 0.0322(2) 0.0250(2) 0.0363(3) -0.00208(18) -0.0073(2) 0.00031(19)
Zn1 Zn2+ 0.0242(3) 0.0242(3) 0.0382(6) 0. 0. 0.
N1 N1- 0.040(2) 0.0242(16) 0.048(2) 0.0011(14) -0.004(3) -0.004(2)
C1 C0+ 0.0241(19) 0.0219(18) 0.038(2) -0.0019(15) 0.0023(17) -0.0046(17)
