
#(C) 2017 by FIZ Karlsruhe - Leibniz Institute for Information Infrastructure.  All rights reserved.
data_189498-ICSD
_database_code_ICSD 189498
_audit_creation_date 2014-02-01
_chemical_name_systematic 'Yttrium nickel phosphide (1/1/1)'
_chemical_formula_structural 'Y Ni P'
_chemical_formula_sum 'Ni1 P1 Y1'
_chemical_name_structure_type SrGaSn
_exptl_crystal_density_diffrn 5.86
_cell_measurement_temperature 293.
_publ_section_title

;
Interaction of yttrium with nickel and phosphorus: Phase diagram and
structural chemistry
;
_publ_section_comment 'Cell and Type only determined'
loop_
_citation_id
_citation_journal_full
_citation_year
_citation_journal_volume
_citation_page_first
_citation_page_last
_citation_journal_id_ASTM
primary 'Journal of Solid State Chemistry' 2013 207 87 93 JSSCBI
loop_
_publ_author_name
'Zhak, Olga'
'Stoyko, Stanislav'
'Babizhetskyy, Volodymyr'
'Shved, Olena'
'Oryshchyn, Stepan'
'Hoch, Constantin'
_cell_length_a 3.89239(7)
_cell_length_b 3.89239(7)
_cell_length_c 15.4329(3)
_cell_angle_alpha 90.
_cell_angle_beta 90.
_cell_angle_gamma 120.
_cell_volume 202.49
_cell_formula_units_Z 4
_symmetry_space_group_name_H-M 'P 63/m m c'
_symmetry_Int_Tables_number 194
loop_
_symmetry_equiv_pos_site_id
_symmetry_equiv_pos_as_xyz
1 'x, x-y, -z+1/2'
2 '-x+y, y, -z+1/2'
3 '-y, -x, -z+1/2'
4 '-x+y, -x, -z+1/2'
5 '-y, x-y, -z+1/2'
6 'x, y, -z+1/2'
7 '-x, -x+y, z+1/2'
8 'x-y, -y, z+1/2'
9 'y, x, z+1/2'
10 'x-y, x, z+1/2'
11 'y, -x+y, z+1/2'
12 '-x, -y, z+1/2'
13 '-x, -x+y, -z'
14 'x-y, -y, -z'
15 'y, x, -z'
16 'x-y, x, -z'
17 'y, -x+y, -z'
18 '-x, -y, -z'
19 'x, x-y, z'
20 '-x+y, y, z'
21 '-y, -x, z'
22 '-x+y, -x, z'
23 '-y, x-y, z'
24 'x, y, z'
loop_
_atom_type_symbol
_atom_type_oxidation_number
Y0+ 0
Ni0+ 0
P0+ 0
loop_
_atom_site_label
_atom_site_type_symbol
_atom_site_symmetry_multiplicity
_atom_site_Wyckoff_symbol
_atom_site_fract_x
_atom_site_fract_y
_atom_site_fract_z
_atom_site_B_iso_or_equiv
_atom_site_occupancy
_atom_site_attached_hydrogens
Y1 Y0+ 4 f 0.3333 0.6667 0.121 . 1. 0
Ni1 Ni0+ 2 a 0 0 0 . 1. 0
Ni2 Ni0+ 2 b 0 0 0.25 . 1. 0
P1 P0+ 4 f 0.3333 0.6667 0.61 . 1. 0
#End of TTdata_189498-ICSD