
data_1899-ICSD
_database_code_ICSD 1899
_audit_creation_date 1980-01-01
_audit_update_record 2007-08-01
_chemical_name_systematic 'Silver iodide'
_chemical_formula_structural 'Ag I'
_chemical_formula_sum 'Ag1 I1'
_chemical_name_structure_type SiC(4H)
_chemical_name_mineral 'Iodargyrite 4H'
_exptl_crystal_density_diffrn 5.67
_cell_length_a 4.5979(40)
_cell_length_b 4.5979(40)
_cell_length_c 15.029(7)
_cell_angle_alpha 90.
_cell_angle_beta 90.
_cell_angle_gamma 120.
_cell_volume 275.16
_cell_formula_units_Z 4
_symmetry_space_group_name_H-M 'P 63 m c'
_symmetry_Int_Tables_number 186
_refine_ls_R_factor_all 0.024
loop_
_symmetry_equiv_pos_site_id
_symmetry_equiv_pos_as_xyz
1 '-x, -x+y, z+1/2'
2 'x-y, -y, z+1/2'
3 'y, x, z+1/2'
4 'x-y, x, z+1/2'
5 'y, -x+y, z+1/2'
6 '-x, -y, z+1/2'
7 'x, x-y, z'
8 '-x+y, y, z'
9 '-y, -x, z'
10 '-x+y, -x, z'
11 '-y, x-y, z'
12 'x, y, z'
loop_
_atom_type_symbol
_atom_type_oxidation_number
Ag1+ 1
I1- -1
loop_
_atom_site_label
_atom_site_type_symbol
_atom_site_symmetry_multiplicity
_atom_site_Wyckoff_symbol
_atom_site_fract_x
_atom_site_fract_y
_atom_site_fract_z
_atom_site_B_iso_or_equiv
_atom_site_occupancy
_atom_site_attached_hydrogens
Ag1 Ag1+ 2 a 0 0 0.25 . 1. 0
Ag2 Ag1+ 2 b 0.3333 0.6667 0 . 1. 0
I1 I1- 2 a 0 0 0.4384(4) . 1. 0
I2 I1- 2 b 0.3333 0.6667 -.1884(4) . 1. 0
loop_
_atom_site_aniso_label
_atom_site_aniso_type_symbol
_atom_site_aniso_B_11
_atom_site_aniso_B_22
_atom_site_aniso_B_33
_atom_site_aniso_B_12
_atom_site_aniso_B_13
_atom_site_aniso_B_23
Ag1 Ag1+ 6.6(2) 6.6(2) 6.3(2) 3.3(1) 0 0
Ag2 Ag1+ 6.6(2) 6.6(2) 6.3(2) 3.3(1) 0 0
I1 I1- 4.2(1) 4.2(1) 3.6(1) 2.10(5) 0 0
I2 I1- 4.2(1) 4.2(1) 3.6(1) 2.10(5) 0 0
