
#(C) 2017 by FIZ Karlsruhe - Leibniz Institute for Information Infrastructure.  All rights reserved.
data_190123-ICSD
_database_code_ICSD 190123
_audit_creation_date 2014-08-01
_chemical_name_systematic 'Zirconium copper stannide (1/1/1)'
_chemical_formula_structural 'Zr Cu Sn'
_chemical_formula_sum 'Cu1 Sn1 Zr1'
_chemical_name_structure_type TiNiSi-MgSrSi
_exptl_crystal_density_diffrn 8.17
_publ_section_title

;
New Mg Ag As -, Li Ga Ge -, and Ti Ni Si - structure phases containing d- and
p-elements
;
loop_
_citation_id
_citation_journal_full
_citation_year
_citation_journal_volume
_citation_page_first
_citation_page_last
_citation_journal_id_ASTM
primary 'Inorganic Materials' 1999 35 368 372 INOMAF
loop_
_publ_author_name
'Skolozdra, R.V.'
'Romaka, L.P.'
'Aksel'rud, L.G.'
'Mel'nik, G.A.'
'Tatomir, Ya.A.'
_cell_length_a 6.6279(1)
_cell_length_b 4.3679(9)
_cell_length_c 7.6791(2)
_cell_angle_alpha 90.
_cell_angle_beta 90.
_cell_angle_gamma 90.
_cell_volume 222.31
_cell_formula_units_Z 4
_symmetry_space_group_name_H-M 'P n m a'
_symmetry_Int_Tables_number 62
_refine_ls_R_factor_all 0.047
loop_
_symmetry_equiv_pos_site_id
_symmetry_equiv_pos_as_xyz
1 'x+1/2, y, -z+1/2'
2 'x, -y+1/2, z'
3 '-x+1/2, y+1/2, z+1/2'
4 '-x, -y, -z'
5 '-x+1/2, -y, z+1/2'
6 '-x, y+1/2, -z'
7 'x+1/2, -y+1/2, -z+1/2'
8 'x, y, z'
loop_
_atom_type_symbol
_atom_type_oxidation_number
Zr0+ 0
Cu0+ 0
Sn0+ 0
loop_
_atom_site_label
_atom_site_type_symbol
_atom_site_symmetry_multiplicity
_atom_site_Wyckoff_symbol
_atom_site_fract_x
_atom_site_fract_y
_atom_site_fract_z
_atom_site_B_iso_or_equiv
_atom_site_occupancy
_atom_site_attached_hydrogens
Zr1 Zr0+ 4 c 0.5009(9) 0.25 0.2800(2) 0.36(3) 1. 0
Cu1 Cu0+ 4 c 0.1992(5) 0.25 0.5835(6) 0.65(8) 1. 0
Sn1 Sn0+ 4 c 0.7723(3) 0.25 0.5870(3) 0.39(3) 1. 0
#End of TTdata_190123-ICSD