
#(C) 2017 by FIZ Karlsruhe - Leibniz Institute for Information Infrastructure.  All rights reserved.
data_191560-ICSD
_database_code_ICSD 191560
_audit_creation_date 2014-08-01
_chemical_name_systematic 'Yttrium magnesium nickel hydride (1/1/4/4)'
_chemical_formula_structural 'Y Mg Ni4 H4'
_chemical_formula_sum 'H4 Mg1 Ni4 Y1'
_exptl_crystal_density_diffrn 5.9
_cell_measurement_temperature 293.
_cell_measurement_pressure 4000.
_publ_section_title

;
Hydrogenation properties and crystal structure of Y Mg T4 (T = Co, Ni, Cu)
compounds
;
loop_
_citation_id
_citation_journal_full
_citation_year
_citation_journal_volume
_citation_page_first
_citation_page_last
_citation_journal_id_ASTM
primary 'Journal of Alloys and Compounds' 2014 603 7 13 JALCEU
loop_
_publ_author_name
'Shtender, V.V.'
'Denys, R.V.'
'Paul-Boncour, V.'
'Riabov, A.B.'
'Zavaliy, I.Yu.'
_cell_length_a 5.0292(4)
_cell_length_b 5.3996(4)
_cell_length_c 7.3000(6)
_cell_angle_alpha 90.
_cell_angle_beta 90.
_cell_angle_gamma 90.
_cell_volume 198.24
_cell_formula_units_Z 2
_symmetry_space_group_name_H-M 'P m n 21'
_symmetry_Int_Tables_number 31
loop_
_symmetry_equiv_pos_site_id
_symmetry_equiv_pos_as_xyz
1 'x+1/2, -y, z+1/2'
2 '-x+1/2, -y, z+1/2'
3 '-x, y, z'
4 'x, y, z'
loop_
_atom_type_symbol
_atom_type_oxidation_number
Y0+ 0
Mg0+ 0
Ni0+ 0
H0+ 0
loop_
_atom_site_label
_atom_site_type_symbol
_atom_site_symmetry_multiplicity
_atom_site_Wyckoff_symbol
_atom_site_fract_x
_atom_site_fract_y
_atom_site_fract_z
_atom_site_B_iso_or_equiv
_atom_site_occupancy
_atom_site_attached_hydrogens
Y1 Y0+ 2 a 0 0.298(1) -0.078(21) 0.91(8) 1. 0
Mg1 Mg0+ 2 a 0 0.827(3) 0.140(21) 0.91(8) 1. 0
Ni1 Ni0+ 2 a 0 0.4517(9) 0.544(20) 0.45(4) 1. 0
Ni2 Ni0+ 2 a 0 0.987(1) 0.528(21) 0.45(4) 1. 0
Ni3 Ni0+ 4 b 0.755(1) 0.226(1) 0.298(21) 0.45(4) 1. 0
#End of TTdata_191560-ICSD