
#(C) 2017 by FIZ Karlsruhe - Leibniz Institute for Information Infrastructure.  All rights reserved.
data_192215-ICSD
_database_code_ICSD 192215
_audit_creation_date 2015-02-01
_chemical_name_systematic 'Niobium palladium sulfide (2/1/5)'
_chemical_formula_structural 'Nb2 Pd S5'
_chemical_formula_sum 'Nb2 Pd1 S5'
_chemical_name_structure_type Nb2PdSe5
_exptl_crystal_density_diffrn 5.17
_cell_measurement_temperature 293.
_publ_section_title
'Robust superconductivity with large upper critical field in Nb2 Pd S5'
loop_
_citation_id
_citation_journal_full
_citation_year
_citation_journal_volume
_citation_page_first
_citation_page_last
_citation_journal_id_ASTM
primary 'Journal of Applied Physics' 2014 115 213903-1 213903-6 JAPIAU
loop_
_publ_author_name
'Jha, Rajveer'
'Tiwari, Brajesh'
'Rani, Poonam'
'Kishan, Hari'
'Awana, V.P.S.'
_cell_length_a 12.134(2)
_cell_length_b 3.277(1)
_cell_length_c 15.023(3)
_cell_angle_alpha 90.
_cell_angle_beta 103.23(1)
_cell_angle_gamma 90.
_cell_volume 581.51
_cell_formula_units_Z 4
_symmetry_space_group_name_H-M 'C 1 2/m 1'
_symmetry_Int_Tables_number 12
loop_
_symmetry_equiv_pos_site_id
_symmetry_equiv_pos_as_xyz
1 '-x, y, -z'
2 '-x, -y, -z'
3 'x, -y, z'
4 'x, y, z'
5 '-x+1/2, y+1/2, -z'
6 '-x+1/2, -y+1/2, -z'
7 'x+1/2, -y+1/2, z'
8 'x+1/2, y+1/2, z'
loop_
_atom_type_symbol
_atom_type_oxidation_number
Nb5+ 5
Pd0+ 0
S2- -2
loop_
_atom_site_label
_atom_site_type_symbol
_atom_site_symmetry_multiplicity
_atom_site_Wyckoff_symbol
_atom_site_fract_x
_atom_site_fract_y
_atom_site_fract_z
_atom_site_B_iso_or_equiv
_atom_site_occupancy
_atom_site_attached_hydrogens
Nb1 Nb5+ 4 i 0.0759(5) 0.5 0.179(4) . 1. 0
Nb2 Nb5+ 4 i 0.1528(8) 0 0.3783(2) . 1. 0
Pd1 Pd0+ 2 a 0 0 0 . 1. 0
Pd2 Pd0+ 2 c 0 0 0.5 . 1. 0
S1 S2- 4 i 0.3503(6) 0 0.4890(1) . 1. 0
S2 S2- 4 i 0.2537(4) 0.5 0.2950(6) . 1. 0
S3 S2- 4 i 0.1753(6) 0 0.0977(8) . 1. 0
S4 S2- 4 i 0.4230(3) 0.5 0.1321(4) . 1. 0
S5 S2- 4 i 0.4904(7) 0 0.3234(6) . 1. 0
#End of TTdata_192215-ICSD