
#(C) 2017 by FIZ Karlsruhe - Leibniz Institute for Information Infrastructure.  All rights reserved.
data_192389-ICSD
_database_code_ICSD 192389
_audit_creation_date 2015-02-01
_audit_update_record 2017-02-01
_chemical_name_systematic 'Iron dichromate'
_chemical_formula_structural 'Fe (Cr2 O4)'
_chemical_formula_sum 'Cr2 Fe1 O4'
_chemical_name_mineral Xieite
_exptl_crystal_density_diffrn 5.55
_cell_measurement_temperature 298.
_publ_section_title

;
High-pressure phase transitions in Fe Cr2 O4 and structure analysis of new
post-spinel Fe Cr2 O4 and Fe2 Cr2 O5 phases with meteoritical and petrological
implications
;
loop_
_citation_id
_citation_journal_full
_citation_year
_citation_journal_volume
_citation_page_first
_citation_page_last
_citation_journal_id_ASTM
primary 'American Mineralogist' 2014 99 1788 1797 AMMIAY
loop_
_publ_author_name
'Ishii, Takayuki'
'Kojitani, Hiroshi'
'Tsukamoto, Shoichi'
'Fujino, Kiyoshi'
'Mori, Daisuke'
'Inaguma, Yoshiyuki'
'Tsujino, Noriyoshi'
'Yoshino, Takashi'
'Yamazaki, Daisuke'
'Higo, Yuji'
'Funakoshi, Kenichi'
'Akaogi, Masaki'
_cell_length_a 2.88445(6)
_cell_length_b 9.5207(2)
_cell_length_c 9.7532(2)
_cell_angle_alpha 90
_cell_angle_beta 90
_cell_angle_gamma 90
_cell_volume 267.83
_cell_formula_units_Z 4
_symmetry_space_group_name_H-M 'C m c m'
_symmetry_Int_Tables_number 63
_refine_ls_R_factor_all 0.0197
loop_
_symmetry_equiv_pos_site_id
_symmetry_equiv_pos_as_xyz
1 '-x, y, -z+1/2'
2 '-x, -y, z+1/2'
3 '-x, y, z'
4 '-x, -y, -z'
5 'x, -y, z+1/2'
6 'x, y, -z+1/2'
7 'x, -y, -z'
8 'x, y, z'
9 '-x+1/2, y+1/2, -z+1/2'
10 '-x+1/2, -y+1/2, z+1/2'
11 '-x+1/2, y+1/2, z'
12 '-x+1/2, -y+1/2, -z'
13 'x+1/2, -y+1/2, z+1/2'
14 'x+1/2, y+1/2, -z+1/2'
15 'x+1/2, -y+1/2, -z'
16 'x+1/2, y+1/2, z'
loop_
_atom_type_symbol
_atom_type_oxidation_number
Fe2+ 2
Cr3+ 3
O2- -2
loop_
_atom_site_label
_atom_site_type_symbol
_atom_site_symmetry_multiplicity
_atom_site_Wyckoff_symbol
_atom_site_fract_x
_atom_site_fract_y
_atom_site_fract_z
_atom_site_B_iso_or_equiv
_atom_site_occupancy
_atom_site_attached_hydrogens
Fe1 Fe2+ 4 c 0 0.1128(2) 0.25 0.0222(5) 1 0
Cr1 Cr3+ 8 f 0 0.3686(2) 0.0714(1) 0.0032(2) 1 0
O1 O2- 4 a 0 0 0 0.006(1) 1 0
O2 O2- 4 c 0 0.4656(6) 0.25 0.008(1) 1 0
O3 O2- 8 f 0 0.2640(4) 0.6109(3) 0.008(1) 1 0
#End of TTdata_192389-ICSD