
data_192564-ICSD
_database_code_ICSD 192564
_audit_creation_date 2015-02-01
_chemical_name_systematic 'Scandium ruthenium phosphide (1/6/4)'
_chemical_formula_structural 'Sc Ru6 P4'
_chemical_formula_sum 'P4 Ru6 Sc1'
_exptl_crystal_density_diffrn 8.61
_cell_length_a 6.900(2)
_cell_length_b 6.900(2)
_cell_length_c 3.625(3)
_cell_angle_alpha 90.
_cell_angle_beta 90.
_cell_angle_gamma 120.
_cell_volume 149.46
_cell_formula_units_Z 1
_symmetry_space_group_name_H-M 'P -6 m 2'
_symmetry_Int_Tables_number 187
_refine_ls_R_factor_all 0.023
loop_
_symmetry_equiv_pos_site_id
_symmetry_equiv_pos_as_xyz
1 'x, x-y, -z'
2 '-x+y, y, -z'
3 '-y, -x, -z'
4 'x, x-y, z'
5 '-x+y, y, z'
6 '-y, -x, z'
7 '-x+y, -x, -z'
8 '-y, x-y, -z'
9 'x, y, -z'
10 '-x+y, -x, z'
11 '-y, x-y, z'
12 'x, y, z'
loop_
_atom_type_symbol
_atom_type_oxidation_number
Sc0+ 0
Ru0+ 0
P0+ 0
loop_
_atom_site_label
_atom_site_type_symbol
_atom_site_symmetry_multiplicity
_atom_site_Wyckoff_symbol
_atom_site_fract_x
_atom_site_fract_y
_atom_site_fract_z
_atom_site_B_iso_or_equiv
_atom_site_occupancy
_atom_site_attached_hydrogens
Sc1 Sc0+ 1 a 0 0 0 0.80(10) 1. 0
Ru1 Ru0+ 3 k 0.8030(1) 0.1970(1) 0.5 0.33(1) 1. 0
Ru2 Ru0+ 3 j 0.4643(2) 0.5357(2) 0 0.55(2) 1. 0
P1 P0+ 3 k 0.1860(4) 0.8140(4) 0.5 0.49(5) 1. 0
P2 P0+ 1 e 0.6667 0.3333 0 0.42(9) 1. 0
loop_
_atom_site_aniso_label
_atom_site_aniso_type_symbol
_atom_site_aniso_U_11
_atom_site_aniso_U_22
_atom_site_aniso_U_33
_atom_site_aniso_U_12
_atom_site_aniso_U_13
_atom_site_aniso_U_23
Sc1 Sc0+ 0.0092(12) 0.0092(12) 0.0121(19) 0.0092(12) 0. 0.
Ru1 Ru0+ 0.0043(1) 0.0043(1) 0.0027(2) 0.0014(2) 0. 0.
Ru2 Ru0+ 0.0055(2) 0.0055(2) 0.0113(3) 0.0037(2) 0. 0.
