
#(C) 2017 by FIZ Karlsruhe - Leibniz Institute for Information Infrastructure.  All rights reserved.
data_193108-ICSD
_database_code_ICSD 193108
_audit_creation_date 2015-02-01
_chemical_name_systematic 'Aluminium titanium platinum (2/9/4)'
_chemical_formula_structural 'Al2 Ti9 Pt4'
_chemical_formula_sum 'Al2 Pt4 Ti9'
_chemical_name_structure_type U(beta)-CrFe
_exptl_crystal_density_diffrn 8.89
_publ_section_title

;
Crystal structures of the Al - Ti - Pt tau5 and tau6 phases solved by zonal
precession electron diffraction
;
loop_
_citation_id
_citation_journal_full
_citation_year
_citation_journal_volume
_citation_page_first
_citation_page_last
_citation_journal_id_ASTM
primary 'Journal of Alloys and Compounds' 2015 621 47 52 JALCEU
loop_
_publ_author_name
'Samuha, S.'
'Pavlyuchkov, D.'
'Zaikina, O.V.'
'Grushko, B.'
'Meshi, L.'
_cell_length_a 9.702
_cell_length_b 9.702
_cell_length_c 5.023
_cell_angle_alpha 90.
_cell_angle_beta 90.
_cell_angle_gamma 90.
_cell_volume 472.81
_cell_formula_units_Z 2
_symmetry_space_group_name_H-M 'P 42/m n m'
_symmetry_Int_Tables_number 136
_refine_ls_R_factor_all 0.23
loop_
_symmetry_equiv_pos_site_id
_symmetry_equiv_pos_as_xyz
1 '-y+1/2, x+1/2, -z+1/2'
2 'y+1/2, -x+1/2, -z+1/2'
3 'y, x, -z'
4 '-y, -x, -z'
5 'y+1/2, -x+1/2, z+1/2'
6 '-y+1/2, x+1/2, z+1/2'
7 '-y, -x, z'
8 'y, x, z'
9 'x+1/2, -y+1/2, -z+1/2'
10 '-x+1/2, y+1/2, -z+1/2'
11 'x, y, -z'
12 '-x, -y, -z'
13 '-x+1/2, y+1/2, z+1/2'
14 'x+1/2, -y+1/2, z+1/2'
15 '-x, -y, z'
16 'x, y, z'
loop_
_atom_type_symbol
_atom_type_oxidation_number
Ti0+ 0
Al0+ 0
Pt0+ 0
loop_
_atom_site_label
_atom_site_type_symbol
_atom_site_symmetry_multiplicity
_atom_site_Wyckoff_symbol
_atom_site_fract_x
_atom_site_fract_y
_atom_site_fract_z
_atom_site_B_iso_or_equiv
_atom_site_occupancy
_atom_site_attached_hydrogens
Ti1 Ti0+ 2 a 0 0 0 0.10(3) 1. 0
Ti2 Ti0+ 8 i 0.455(2) 0.122(2) 0 0.022(7) 1. 0
Ti3 Ti0+ 8 j 0.6881(1) 0.3119(1) 0.7409(2) 0.008(5) 1. 0
Al1 Al0+ 4 f 0.885(3) 0.115(3) 0.5 0.002(1) 1. 0
Pt1 Pt0+ 8 i 0.7335(1) 0.0564(7) 0 0.015(4) 1. 0
#End of TTdata_193108-ICSD