
#(C) 2017 by FIZ Karlsruhe - Leibniz Institute for Information Infrastructure.  All rights reserved.
data_193116-ICSD
_database_code_ICSD 193116
_audit_creation_date 2015-02-01
_chemical_name_systematic 'Platinum indium arsenide (8/2/1)'
_chemical_formula_structural 'Pt8 In2 As'
_chemical_formula_sum 'As1 In2 Pt8'
_exptl_crystal_density_diffrn 17.53
_cell_measurement_temperature 293.
_publ_section_title

;
Ternary arsenides based on platinum-indium and palladium-indium fragments of
the Cu3 Au-type: Crystal structures and chemical bonding
;
loop_
_citation_id
_citation_journal_full
_citation_year
_citation_journal_volume
_citation_page_first
_citation_page_last
_citation_journal_id_ASTM
primary 'Journal of Alloys and Compounds' 2015 621 307 313 JALCEU
loop_
_publ_author_name
'Zakharova, Elena Yu.'
'Andreeva, Natalia A.'
'Kazakov, Sergey M.'
'Kuznetsov, Alexey N.'
_cell_length_a 3.9872(3)
_cell_length_b 3.9872(3)
_cell_length_c 11.1129(7)
_cell_angle_alpha 90.
_cell_angle_beta 90.
_cell_angle_gamma 90.
_cell_volume 176.67
_cell_formula_units_Z 1
_symmetry_space_group_name_H-M 'P 4/m m m'
_symmetry_Int_Tables_number 123
_refine_ls_R_factor_all 0.0141
loop_
_symmetry_equiv_pos_site_id
_symmetry_equiv_pos_as_xyz
1 'y, x, -z'
2 '-y, -x, -z'
3 '-y, x, -z'
4 'y, -x, -z'
5 '-x, y, -z'
6 'x, -y, -z'
7 'x, y, -z'
8 '-x, -y, -z'
9 '-y, -x, z'
10 'y, x, z'
11 'y, -x, z'
12 '-y, x, z'
13 'x, -y, z'
14 '-x, y, z'
15 '-x, -y, z'
16 'x, y, z'
loop_
_atom_type_symbol
_atom_type_oxidation_number
Pt0+ 0
In0+ 0
As0+ 0
loop_
_atom_site_label
_atom_site_type_symbol
_atom_site_symmetry_multiplicity
_atom_site_Wyckoff_symbol
_atom_site_fract_x
_atom_site_fract_y
_atom_site_fract_z
_atom_site_B_iso_or_equiv
_atom_site_occupancy
_atom_site_attached_hydrogens
Pt1 Pt0+ 2 f 0 0.5 0 0.99(6) 1. 0
Pt2 Pt0+ 4 i 0 0.5 0.3624(1) 0.67(6) 1. 0
Pt3 Pt0+ 2 g 0 0 0.1817(4) 0.67(8) 1. 0
In1 In0+ 2 h 0.5 0.5 0.1774(1) 0.3(1) 1. 0
As1 As0+ 1 b 0 0 0.5 1.0(2) 1. 0
#End of TTdata_193116-ICSD