
data_194236-ICSD
_database_code_ICSD 194236
_audit_creation_date 2015-08-01
_chemical_name_systematic 'Dirubidium cadmium dibromide diiodide'
_chemical_formula_structural 'Rb2 Cd Br2 I2'
_chemical_formula_sum 'Br2 Cd1 I2 Rb2'
_chemical_name_structure_type Sr2GeSe4
_exptl_crystal_density_diffrn 3.87
_cell_measurement_temperature 298.
_cell_length_a 11.764(8)
_cell_length_b 12.025(8)
_cell_length_c 8.446(6)
_cell_angle_alpha 90.
_cell_angle_beta 90.
_cell_angle_gamma 90.
_cell_volume 1194.78
_cell_formula_units_Z 4
_symmetry_space_group_name_H-M 'A m a 2'
_symmetry_Int_Tables_number 40
_refine_ls_R_factor_all 0.0557
loop_
_symmetry_equiv_pos_site_id
_symmetry_equiv_pos_as_xyz
1 'x+1/2, -y, z'
2 '-x+1/2, y, z'
3 '-x, -y, z'
4 'x, y, z'
5 'x+1/2, -y+1/2, z+1/2'
6 '-x+1/2, y+1/2, z+1/2'
7 '-x, -y+1/2, z+1/2'
8 'x, y+1/2, z+1/2'
loop_
_atom_type_symbol
_atom_type_oxidation_number
Br1- -1
Cd2+ 2
I1- -1
Br1- -1
Rb1+ 1
loop_
_atom_site_label
_atom_site_type_symbol
_atom_site_symmetry_multiplicity
_atom_site_Wyckoff_symbol
_atom_site_fract_x
_atom_site_fract_y
_atom_site_fract_z
_atom_site_B_iso_or_equiv
_atom_site_occupancy
_atom_site_attached_hydrogens
Br1 Br1- 4 b 0.75 0.5776(2) 0.9401(4) 0.0531(7) 1 0
Cd1 Cd2+ 4 b 0.75 0.77183(18) 1.0752(3) 0.0510(5) 1 0
I1 I1- 8 c 0.94082(11) 0.78866(15) 1.26165(18) 0.0679(5) 1 0
Br2 Br1- 4 b 0.75 0.9239(3) 0.8466(4) 0.0657(9) 1 0
Rb1 Rb1+ 4 a 1. 0.5 1.1122(5) 0.0758(12) 1 0
Rb2 Rb1+ 4 b 0.75 0.6785(5) 0.5716(5) 0.0966(13) 1 0
loop_
_atom_site_aniso_label
_atom_site_aniso_type_symbol
_atom_site_aniso_U_11
_atom_site_aniso_U_22
_atom_site_aniso_U_33
_atom_site_aniso_U_12
_atom_site_aniso_U_13
_atom_site_aniso_U_23
Br1 Br1- 0.0499(13) 0.0585(16) 0.0508(15) 0. 0. 0.0058(12)
Cd1 Cd2+ 0.0508(10) 0.0590(11) 0.0432(10) 0. 0. 0.0067(10)
I1 I1- 0.0575(8) 0.0865(11) 0.0597(9) 0.0046(6) -0.0078(7) -0.0133(8)
Br2 Br1- 0.0681(17) 0.073(2) 0.0562(18) 0. 0. 0.0325(15)
Rb1 Rb1+ 0.0457(13) 0.0566(16) 0.125(4) 0.0097(11) 0. 0.
Rb2 Rb1+ 0.103(3) 0.139(4) 0.0476(18) 0. 0. 0.010(2)
