
#(C) 2017 by FIZ Karlsruhe - Leibniz Institute for Information Infrastructure.  All rights reserved.
data_195139-ICSD
_database_code_ICSD 195139
_audit_creation_date 2015-08-01
_chemical_name_systematic 'Pentayttrium trialuminium tetracarbide'
_chemical_formula_structural 'Y5 Al3 C4'
_chemical_formula_sum 'C4 Al3 Y5'
_exptl_crystal_density_diffrn 4.6
_publ_section_title 'Crystal and electronic structure of Y5 Al3 C4'
loop_
_citation_id
_citation_journal_full
_citation_year
_citation_journal_volume
_citation_page_first
_citation_page_last
_citation_journal_id_ASTM
primary 'Zeitschrift fuer Anorganische und Allgemeine Chemie (1950) (DE)' 2015
641 1521 1526 ZAACAB
loop_
_publ_author_name
'Kotyrba, Martin R.'
'Cuervo-Reyes, Eduardo'
'Nesper, Reinhard'
_cell_length_a 10.8442(11)
_cell_length_b 10.8442(11)
_cell_length_c 3.5234(4)
_cell_angle_alpha 90.
_cell_angle_beta 90.
_cell_angle_gamma 90.
_cell_volume 414.34
_cell_formula_units_Z 2
_symmetry_space_group_name_H-M 'P 4/m b m'
_symmetry_Int_Tables_number 127
_refine_ls_R_factor_all 0.0195
loop_
_symmetry_equiv_pos_site_id
_symmetry_equiv_pos_as_xyz
1 'y+1/2, x+1/2, -z'
2 '-y+1/2, -x+1/2, -z'
3 '-y, x, -z'
4 'y, -x, -z'
5 'x+1/2, -y+1/2, -z'
6 '-x+1/2, y+1/2, -z'
7 'x, y, -z'
8 '-x, -y, -z'
9 '-y+1/2, -x+1/2, z'
10 'y+1/2, x+1/2, z'
11 'y, -x, z'
12 '-y, x, z'
13 '-x+1/2, y+1/2, z'
14 'x+1/2, -y+1/2, z'
15 '-x, -y, z'
16 'x, y, z'
loop_
_atom_type_symbol
_atom_type_oxidation_number
Y0+ 0
Al0+ 0
C0+ 0
loop_
_atom_site_label
_atom_site_type_symbol
_atom_site_symmetry_multiplicity
_atom_site_Wyckoff_symbol
_atom_site_fract_x
_atom_site_fract_y
_atom_site_fract_z
_atom_site_B_iso_or_equiv
_atom_site_occupancy
_atom_site_attached_hydrogens
Y1 Y0+ 8 j 0.05116(3) 0.22715(3) 0.5 0.00723(11) 1. 0
Y2 Y0+ 2 d 0 0.5 0 0.00743(14) 1. 0
Al1 Al0+ 4 g 0.20403(10) 0.70403(10) 0 0.0096(3) 1. 0
Al2 Al0+ 2 a 0 0 0 0.0090(4) 1. 0
C1 C0+ 4 h 0.1329(3) 0.6329(3) 0.5 0.0094(8) 1. 0
C2 C0+ 4 g 0.6622(3) 0.1622(3) 0 0.0080(8) 1. 0
loop_
_atom_site_aniso_label
_atom_site_aniso_type_symbol
_atom_site_aniso_U_11
_atom_site_aniso_U_22
_atom_site_aniso_U_33
_atom_site_aniso_U_12
_atom_site_aniso_U_13
_atom_site_aniso_U_23
Y1 Y0+ 0.00693(16) 0.00652(15) 0.00825(15) -0.00053(10) 0. 0.
Y2 Y0+ 0.00653(17) 0.00653(17) 0.0092(3) 0.0005(2) 0. 0.
Al1 Al0+ 0.0100(4) 0.0100(4) 0.0089(6) -0.0043(5) 0. 0.
Al2 Al0+ 0.0058(5) 0.0058(5) 0.0152(9) 0. 0. 0.
C1 C0+ 0.0104(12) 0.0104(12) 0.0075(18) 0.0019(16) 0. 0.
C2 C0+ 0.0068(11) 0.0068(11) 0.0104(18) 0.0022(15) 0. 0.
#End of TTdata_195139-ICSD