
#(C) 2017 by FIZ Karlsruhe - Leibniz Institute for Information Infrastructure.  All rights reserved.
data_195515-ICSD
_database_code_ICSD 195515
_audit_creation_date 2016-02-01
_chemical_name_systematic 'Zinc tetraoxomolybdate'
_chemical_formula_structural 'Zn (Mo O4)'
_chemical_formula_sum 'Mo1 O4 Zn1'
_chemical_name_structure_type Wolframite-NiWO4
_exptl_crystal_density_diffrn 5.67
_cell_measurement_temperature 293.
_publ_section_title

;
Redetermination of the crystal structure of beta-zinc molybdate from
single-crystal X-ray diffraction data
;
loop_
_citation_id
_citation_journal_full
_citation_year
_citation_journal_volume
_citation_page_first
_citation_page_last
_citation_journal_id_ASTM
primary 'Acta Crystallographica, Section E. Structure Reports Online' 2015 71 i6
i7 ACSEBH
loop_
_publ_author_name
'Mtioui-Sghaier, Olfa'
'Mendoza-Merono, Rafael'
'Ktari, Lilia'
'Dammak, Mohamed'
'Garcia-Granda, Santiago'
_cell_length_a 4.6980(3)
_cell_length_b 5.7380(4)
_cell_length_c 4.8960(4)
_cell_angle_alpha 90
_cell_angle_beta 90.311(7)
_cell_angle_gamma 90
_cell_volume 131.98
_cell_formula_units_Z 2
_symmetry_space_group_name_H-M 'P 1 2/c 1'
_symmetry_Int_Tables_number 13
_refine_ls_R_factor_all 0.0284
loop_
_symmetry_equiv_pos_site_id
_symmetry_equiv_pos_as_xyz
1 'x, -y, z+1/2'
2 '-x, -y, -z'
3 '-x, y, -z+1/2'
4 'x, y, z'
loop_
_atom_type_symbol
_atom_type_oxidation_number
Mo6+ 6
Zn2+ 2
O2- -2
loop_
_atom_site_label
_atom_site_type_symbol
_atom_site_symmetry_multiplicity
_atom_site_Wyckoff_symbol
_atom_site_fract_x
_atom_site_fract_y
_atom_site_fract_z
_atom_site_B_iso_or_equiv
_atom_site_occupancy
_atom_site_attached_hydrogens
Mo1 Mo6+ 2 e 1. 0.81190(10) 0.25 0.00507(18) 1 0
Zn1 Zn2+ 2 f 1.5 0.69182(15) 0.75 0.0092(2) 1 0
O1 O2- 4 g 1.2538(7) 0.6236(6) 0.4014(7) 0.0080(7) 1 0
O2 O2- 4 g 0.7835(7) 0.8950(6) 0.5603(7) 0.0058(7) 1 0
loop_
_atom_site_aniso_label
_atom_site_aniso_type_symbol
_atom_site_aniso_U_11
_atom_site_aniso_U_22
_atom_site_aniso_U_33
_atom_site_aniso_U_12
_atom_site_aniso_U_13
_atom_site_aniso_U_23
Mo1 Mo6+ 0.0065(3) 0.0045(3) 0.0041(3) 0. -0.0002(2) 0.
Zn1 Zn2+ 0.0087(4) 0.0116(4) 0.0073(4) 0. 0.0009(3) 0.
O1 O2- 0.0089(17) 0.0110(16) 0.0041(17) 0.0006(14) 0.0003(13) -0.0004(14)
O2 O2- 0.0088(16) 0.0064(14) 0.0021(16) -0.0005(13) 0.0016(12) -0.0010(13)
#End of TTdata_195515-ICSD