
#(C) 2017 by FIZ Karlsruhe - Leibniz Institute for Information Infrastructure.  All rights reserved.
data_195614-ICSD
_database_code_ICSD 195614
_audit_creation_date 2016-02-01
_chemical_name_systematic 'Sodium tripalladium digermanide'
_chemical_formula_structural 'Na Pd3 Ge2'
_chemical_formula_sum 'Ge2 Na1 Pd3'
_chemical_name_structure_type ErRh3Si2
_exptl_crystal_density_diffrn 7.8
_cell_measurement_temperature 100.
_publ_section_title
'The crystal structure, electronic, and magnetic properties of Na Pd3 Ge2'
loop_
_citation_id
_citation_journal_full
_citation_year
_citation_journal_volume
_citation_page_first
_citation_page_last
_citation_journal_id_ASTM
primary 'Materials Research Bulletin' 2015 70 673 677 MRBUAC
loop_
_publ_author_name
'Ali, Mazhar N.'
'Rohr, Fabian von'
'Campana, C.'
'Schilling, Andreas'
'Cava, R.J.'
_cell_length_a 7.244(1)
_cell_length_b 9.938(1)
_cell_length_c 5.767(2)
_cell_angle_alpha 90.
_cell_angle_beta 90.
_cell_angle_gamma 90.
_cell_volume 415.17
_cell_formula_units_Z 4
_symmetry_space_group_name_H-M 'I m m a'
_symmetry_Int_Tables_number 74
_refine_ls_R_factor_all 0.0224
loop_
_symmetry_equiv_pos_site_id
_symmetry_equiv_pos_as_xyz
1 '-x, y+1/2, -z'
2 '-x, -y+1/2, z'
3 '-x, y, z'
4 '-x, -y, -z'
5 'x, -y+1/2, z'
6 'x, y+1/2, -z'
7 'x, -y, -z'
8 'x, y, z'
9 '-x+1/2, y, -z+1/2'
10 '-x+1/2, -y, z+1/2'
11 '-x+1/2, y+1/2, z+1/2'
12 '-x+1/2, -y+1/2, -z+1/2'
13 'x+1/2, -y, z+1/2'
14 'x+1/2, y, -z+1/2'
15 'x+1/2, -y+1/2, -z+1/2'
16 'x+1/2, y+1/2, z+1/2'
loop_
_atom_type_symbol
_atom_type_oxidation_number
Pd0+ 0
Ge0+ 0
Na0+ 0
loop_
_atom_site_label
_atom_site_type_symbol
_atom_site_symmetry_multiplicity
_atom_site_Wyckoff_symbol
_atom_site_fract_x
_atom_site_fract_y
_atom_site_fract_z
_atom_site_B_iso_or_equiv
_atom_site_occupancy
_atom_site_attached_hydrogens
Pd1 Pd0+ 8 f 0.7975(1) 0.5 0.5 . 1. 0
Pd2 Pd0+ 4 c 0.75 0.75 0.75 . 1. 0
Ge1 Ge0+ 8 h 0 0.9207(2) 0.8127(2) . 1. 0
Na1 Na0+ 4 e 0 0.75 0.713(1) . 1. 0
loop_
_atom_site_aniso_label
_atom_site_aniso_type_symbol
_atom_site_aniso_U_11
_atom_site_aniso_U_22
_atom_site_aniso_U_33
_atom_site_aniso_U_12
_atom_site_aniso_U_13
_atom_site_aniso_U_23
Pd1 Pd0+ 0.0072(6) 0.0016(6) 0.0045(6) 0. 0. 0.0005(4)
Pd2 Pd0+ 0.0223(8) 0.0013(9) 0.0057(8) 0. 0.0003(2) 0.
Ge1 Ge0+ 0.0066(7) 0.011(1) 0.0073(8) 0. 0. 0.0030(7)
Na1 Na0+ 0.005(3) 0.007(4) 0.009(4) 0. 0. 0.
#End of TTdata_195614-ICSD