
data_195668-ICSD
_database_code_ICSD 195668
_audit_creation_date 2016-02-01
_chemical_name_systematic 'Triplatinum dibismuth diselenide'
_chemical_formula_structural 'Pt3 Bi2 Se2'
_chemical_formula_sum 'Bi2 Pt3 Se2'
_chemical_name_structure_type Hg3S2Cl2
_exptl_crystal_density_diffrn 12.59
_cell_measurement_temperature 295.
_cell_length_a 8.49336(5)
_cell_length_b 8.49336(5)
_cell_length_c 8.49336(5)
_cell_angle_alpha 90.
_cell_angle_beta 90.
_cell_angle_gamma 90.
_cell_volume 612.7
_cell_formula_units_Z 4
_symmetry_space_group_name_H-M 'I 21 3'
_symmetry_Int_Tables_number 199
_refine_ls_R_factor_all 0.014
loop_
_symmetry_equiv_pos_site_id
_symmetry_equiv_pos_as_xyz
1 '-z+1/2, -x, y+1/2'
2 '-y+1/2, -z, x+1/2'
3 '-x+1/2, -y, z+1/2'
4 '-z, x+1/2, -y+1/2'
5 '-y, z+1/2, -x+1/2'
6 '-x, y+1/2, -z+1/2'
7 'z+1/2, -x+1/2, -y'
8 'y+1/2, -z+1/2, -x'
9 'x+1/2, -y+1/2, -z'
10 'z, x, y'
11 'y, z, x'
12 'x, y, z'
13 '-z, -x+1/2, y'
14 '-y, -z+1/2, x'
15 '-x, -y+1/2, z'
16 '-z+1/2, x, -y'
17 '-y+1/2, z, -x'
18 '-x+1/2, y, -z'
19 'z, -x, -y+1/2'
20 'y, -z, -x+1/2'
21 'x, -y, -z+1/2'
22 'z+1/2, x+1/2, y+1/2'
23 'y+1/2, z+1/2, x+1/2'
24 'x+1/2, y+1/2, z+1/2'
loop_
_atom_type_symbol
_atom_type_oxidation_number
Bi0+ 0
Pt0+ 0
Se0+ 0
loop_
_atom_site_label
_atom_site_type_symbol
_atom_site_symmetry_multiplicity
_atom_site_Wyckoff_symbol
_atom_site_fract_x
_atom_site_fract_y
_atom_site_fract_z
_atom_site_B_iso_or_equiv
_atom_site_occupancy
_atom_site_attached_hydrogens
Bi1 Bi0+ 8 a 0.01693(5) 0.01693(5) 0.01693(5) 0.9(3) 1. 0
Pt1 Pt0+ 12 b 0.29189(8) 0 0.25 1.4(3) 1. 0
Se1 Se0+ 8 a 0.2838(1) 0.2838(1) 0.2838(1) 1.0(3) 1. 0
