
#(C) 2017 by FIZ Karlsruhe - Leibniz Institute for Information Infrastructure.  All rights reserved.
data_196000-ICSD
_database_code_ICSD 196000
_audit_creation_date 2016-02-01
_chemical_name_systematic 'Dipotassium magnesium dicarbonate'
_chemical_formula_structural 'K2 Mg (C O3)2'
_chemical_formula_sum 'C2 K2 Mg1 O6'
_exptl_crystal_density_diffrn 3.14
_cell_measurement_pressure 8050000.
_publ_section_title

;
Crystal structure, high-pressure, and high-temperature behavior of carbonates
in the K2 Mg (C O3)2 - Na2 Mg (C O3)2 join
;
loop_
_citation_id
_citation_journal_full
_citation_year
_citation_journal_volume
_citation_page_first
_citation_page_last
_citation_journal_id_ASTM
primary 'American Mineralogist' 2015 100 2458 2467 AMMIAY
loop_
_publ_author_name
'Golubkova, Anastasia'
'Merlini, Marco'
'Schmidt, Max W.'
_cell_length_a 8.753(5)
_cell_length_b 5.0669(7)
_cell_length_c 6.238(8)
_cell_angle_alpha 90.
_cell_angle_beta 121.69(13)
_cell_angle_gamma 90.
_cell_volume 235.41
_cell_formula_units_Z 2
_symmetry_space_group_name_H-M 'C 1 2/m 1'
_symmetry_Int_Tables_number 12
_refine_ls_R_factor_all 0.0702
loop_
_symmetry_equiv_pos_site_id
_symmetry_equiv_pos_as_xyz
1 '-x, y, -z'
2 '-x, -y, -z'
3 'x, -y, z'
4 'x, y, z'
5 '-x+1/2, y+1/2, -z'
6 '-x+1/2, -y+1/2, -z'
7 'x+1/2, -y+1/2, z'
8 'x+1/2, y+1/2, z'
loop_
_atom_type_symbol
_atom_type_oxidation_number
K1+ 1
Mg2+ 2
O2- -2
C4+ 4
loop_
_atom_site_label
_atom_site_type_symbol
_atom_site_symmetry_multiplicity
_atom_site_Wyckoff_symbol
_atom_site_fract_x
_atom_site_fract_y
_atom_site_fract_z
_atom_site_B_iso_or_equiv
_atom_site_occupancy
_atom_site_attached_hydrogens
K1 K1+ 4 i 0.7864(7) 0 0.362(2) . 1. 0
Mg1 Mg2+ 2 a 0.5 -0.5 0 . 1. 0
O1 O2- 4 i 0.765(2) -0.5 0.261(7) . 1. 0
O2 O2- 8 j 0.4690(16) 0.2201(13) 0.200(4) . 1. 0
C1 C4+ 4 i 0.399(3) 0 0.201(9) . 1. 0
#End of TTdata_196000-ICSD