
#(C) 2017 by FIZ Karlsruhe - Leibniz Institute for Information Infrastructure.  All rights reserved.
data_196309-ICSD
_database_code_ICSD 196309
_audit_creation_date 2016-02-01
_chemical_name_systematic 'Potassium dicopper bis(sulfate) hydroxide hydrate'
_chemical_formula_structural 'K Cu2 (S O4)2 ((O H) (H2 O))'
_chemical_formula_sum 'H3 Cu2 K1 O10 S2'
_chemical_name_structure_type NaCu2OH(SO4)2H2O
_chemical_name_mineral Kaliochalcite
_exptl_crystal_density_diffrn 3.46
_publ_section_title

;
Kaliochalcite, K Cu2 (S O4)2 ((O H) (H2 O)), a new tsumcorite-group mineral
from the Tolbachik volcano, Kamchatka, Russia
;
loop_
_citation_id
_citation_journal_full
_citation_year
_citation_journal_volume
_citation_page_first
_citation_page_last
_citation_journal_id_ASTM
primary 'European Journal of Mineralogy' 2014 26 597 604 EJMIER
loop_
_publ_author_name
'Pekov, Igor V.'
'Siidra, Oleg I.'
'Chukanov, Nikita V.'
'Yapaskurt, Vasiliy O.'
'Belakovskiy, Dmitry I.'
'Murashko, Mikhail N.'
'Sidorov, Evgeny G.'
_cell_length_a 8.935(2)
_cell_length_b 6.252(2)
_cell_length_c 7.602(2)
_cell_angle_alpha 90.
_cell_angle_beta 117.318(5)
_cell_angle_gamma 90.
_cell_volume 377.3
_cell_formula_units_Z 2
_symmetry_space_group_name_H-M 'C 1 2/m 1'
_symmetry_Int_Tables_number 12
_refine_ls_R_factor_all 0.1
loop_
_symmetry_equiv_pos_site_id
_symmetry_equiv_pos_as_xyz
1 '-x, y, -z'
2 '-x, -y, -z'
3 'x, -y, z'
4 'x, y, z'
5 '-x+1/2, y+1/2, -z'
6 '-x+1/2, -y+1/2, -z'
7 'x+1/2, -y+1/2, z'
8 'x+1/2, y+1/2, z'
loop_
_atom_type_symbol
_atom_type_oxidation_number
Cu2+ 2
K1+ 1
S6+ 6
O2- -2
H1+ 1
loop_
_atom_site_label
_atom_site_type_symbol
_atom_site_symmetry_multiplicity
_atom_site_Wyckoff_symbol
_atom_site_fract_x
_atom_site_fract_y
_atom_site_fract_z
_atom_site_B_iso_or_equiv
_atom_site_occupancy
_atom_site_attached_hydrogens
Cu1 Cu2+ 4 e 0.25 0.25 0 0.0104(8) 1. 0
K1 K1+ 2 d 0 0.5 0.5 0.0165(14) 1. 0
S1 S6+ 4 i 0.0814(3) 0 0.2886(4) 0.0089(11) 1. 0
O1 O2- 4 i 0.1860(11) 0 0.1850(14) 0.017(3) 1. 0
O2 O2- 4 i 0.1875(12) 0 0.5017(14) 0.018(3) 1. 0
O3 O2- 4 i 0.1560(10) 0.5 0.0765(13) 0.021(3) 1. 0
O4 O2- 8 j -0.0276(8) 0.1951(9) 0.2281(9) 0.018(2) 1. 0
loop_
_atom_site_aniso_label
_atom_site_aniso_type_symbol
_atom_site_aniso_U_11
_atom_site_aniso_U_22
_atom_site_aniso_U_33
_atom_site_aniso_U_12
_atom_site_aniso_U_13
_atom_site_aniso_U_23
Cu1 Cu2+ 0.0152(11) 0.0070(11) 0.0070(11) 0.0004(4) 0.0035(8) -0.0017(4)
K1 K1+ 0.018(2) 0.022(2) 0.006(2) 0. 0.0029(16) 0.
S1 S6+ 0.0140(16) 0.0066(14) 0.0048(16) 0. 0.0032(12) 0.
O1 O2- 0.019(5) 0.017(4) 0.010(5) 0. 0.004(4) 0.
O2 O2- 0.021(5) 0.017(4) 0.010(5) 0. 0.002(4) 0.
O3 O2- 0.029(4) 0.016(3) 0.019(5) 0. 0.011(4) 0.
O4 O2- 0.023(3) 0.014(3) 0.015(4) 0.004(2) 0.006(3) 0.000(2)
#End of TTdata_196309-ICSD