
#(C) 2017 by FIZ Karlsruhe - Leibniz Institute for Information Infrastructure.  All rights reserved.
data_196498-ICSD
_database_code_ICSD 196498
_audit_creation_date 2016-08-01
_chemical_name_systematic 'Tantalum chromium phosphide'
_chemical_formula_structural 'Ta Cr P'
_chemical_formula_sum 'Cr1 P1 Ta1'
_chemical_name_structure_type TiNiSi-MgSrSi
_exptl_crystal_density_diffrn 10.88
_publ_section_title

;
Interaction of tantalum, chromium, and phosphorus at 1070 K: Phase diagram and
structural chemistry
;
loop_
_citation_id
_citation_journal_full
_citation_year
_citation_journal_volume
_citation_page_first
_citation_page_last
_citation_journal_id_ASTM
primary 'Journal of Solid State Chemistry' 2016 235 50 57 JSSCBI
loop_
_publ_author_name
'Lomnytska, Ya.'
'Babizhetskyy, V.'
'Oliynyk, A.'
'Toma, O.'
'Dzevenko, M.'
'Mar, A.'
_cell_length_a 6.2344(5)
_cell_length_b 3.5034(3)
_cell_length_c 7.3769(6)
_cell_angle_alpha 90.
_cell_angle_beta 90.
_cell_angle_gamma 90.
_cell_volume 161.12
_cell_formula_units_Z 4
_symmetry_space_group_name_H-M 'P n m a'
_symmetry_Int_Tables_number 62
_refine_ls_R_factor_all 0.092
loop_
_symmetry_equiv_pos_site_id
_symmetry_equiv_pos_as_xyz
1 'x+1/2, y, -z+1/2'
2 'x, -y+1/2, z'
3 '-x+1/2, y+1/2, z+1/2'
4 '-x, -y, -z'
5 '-x+1/2, -y, z+1/2'
6 '-x, y+1/2, -z'
7 'x+1/2, -y+1/2, -z+1/2'
8 'x, y, z'
loop_
_atom_type_symbol
_atom_type_oxidation_number
Ta0+ 0
Cr0+ 0
P0+ 0
loop_
_atom_site_label
_atom_site_type_symbol
_atom_site_symmetry_multiplicity
_atom_site_Wyckoff_symbol
_atom_site_fract_x
_atom_site_fract_y
_atom_site_fract_z
_atom_site_B_iso_or_equiv
_atom_site_occupancy
_atom_site_attached_hydrogens
Ta1 Ta0+ 4 c 0.0329(4) 0.25 0.1709(4) 0.60(8) 1. 0
Cr1 Cr0+ 4 c 0.146(2) 0.25 0.559(2) 0.80(9) 1. 0
P1 P0+ 4 c 0.765(3) 0.25 0.632(3) 0.80(8) 1. 0
#End of TTdata_196498-ICSD