
#(C) 2017 by FIZ Karlsruhe - Leibniz Institute for Information Infrastructure.  All rights reserved.
data_200012-ICSD
_database_code_ICSD 200012
_audit_creation_date 1980-01-01
_audit_update_record 2008-02-01
_chemical_name_systematic 'Potassium aluminium bis(chromate(VI)) dihydrate'
_chemical_formula_structural 'K Al (Cr O4)2 (H2 O)2'
_chemical_formula_sum 'H4 Al1 Cr2 K1 O10'
_chemical_name_structure_type KFe(CrO4)2(H2O)2
_exptl_crystal_density_diffrn 2.77
_publ_section_title

;
Etude structurale des chromates doubles d'aluminium et d'alcalin: Na Al (Cr
O4)2 (H2 O)2 et K Al (Cr O4)2 (H2 O)2
;
loop_
_citation_id
_citation_journal_full
_citation_year
_citation_journal_volume
_citation_page_first
_citation_page_last
_citation_journal_id_ASTM
primary

;
Comptes Rendus Hebdomadaires des Seances de l'Academie des Sciences, Serie C,
Sciences Chimiques (1966-)
; 1977 284 565 568 CHDCAQ
loop_
_publ_author_name
'Cudennec, Y.'
'Riou, A.'
_cell_length_a 10.785(6)
_cell_length_b 5.403(3)
_cell_length_c 10.293(6)
_cell_angle_alpha 90.
_cell_angle_beta 138.19(2)
_cell_angle_gamma 90.
_cell_volume 399.86
_cell_formula_units_Z 2
_symmetry_space_group_name_H-M 'C 1 2/m 1'
_symmetry_Int_Tables_number 12
_refine_ls_R_factor_all 0.078
loop_
_symmetry_equiv_pos_site_id
_symmetry_equiv_pos_as_xyz
1 '-x, y, -z'
2 '-x, -y, -z'
3 'x, -y, z'
4 'x, y, z'
5 '-x+1/2, y+1/2, -z'
6 '-x+1/2, -y+1/2, -z'
7 'x+1/2, -y+1/2, z'
8 'x+1/2, y+1/2, z'
loop_
_atom_type_symbol
_atom_type_oxidation_number
K1+ 1
Al3+ 3
Cr6+ 6
O2- -2
H1+ 1
loop_
_atom_site_label
_atom_site_type_symbol
_atom_site_symmetry_multiplicity
_atom_site_Wyckoff_symbol
_atom_site_fract_x
_atom_site_fract_y
_atom_site_fract_z
_atom_site_B_iso_or_equiv
_atom_site_occupancy
_atom_site_attached_hydrogens
K1 K1+ 2 d 0 0.5 0.5 0.0094 1. 0
Al1 Al3+ 2 a 0 0 0 0.0075 1. 0
Cr1 Cr6+ 4 i 0.6780(6) 0 0.2843(4) 0.0039 1. 0
O1 O2- 8 j 0.6702(17) 0.7439(18) 0.1882(13) 0.0082 1. 0
O2 O2- 4 i 0.502(3) 0 0.244(3) 0.014 1. 0
O3 O2- 4 i 0.865(3) 0 0.518(2) 0.012 1. 0
O4 O2- 4 i 0.105(3) 0 0.919(2) 0.013 1. 0
#End of TTdata_200012-ICSD