
#(C) 2017 by FIZ Karlsruhe - Leibniz Institute for Information Infrastructure.  All rights reserved.
data_20079-ICSD
_database_code_ICSD 20079
_audit_creation_date 1980-01-01
_audit_update_record 1984-11-02
_chemical_name_systematic 'Rhenium cobalt boride (1/1/1)'
_chemical_formula_structural 'Re Co B'
_chemical_formula_sum 'B1 Co1 Re1'
_chemical_name_structure_type TiNiSi-MgSrSi
_exptl_crystal_density_diffrn 14.26
_publ_section_title 'The system rhenium - cobalt - boron'
loop_
_citation_id
_citation_journal_full
_citation_year
_citation_journal_volume
_citation_page_first
_citation_page_last
_citation_journal_id_ASTM
primary 'Izvestiya Akademii Nauk SSSR, Neorganicheskie Materialy' 1973 9 1688
1696 IVNMAW
loop_
_publ_author_name
'Chepiga, M.V.'
'Kuz'ma, Yu.B.'
_cell_length_a 5.648(4)
_cell_length_b 3.221(3)
_cell_length_c 6.554(5)
_cell_angle_alpha 90.
_cell_angle_beta 90.
_cell_angle_gamma 90.
_cell_volume 119.23
_cell_formula_units_Z 4
_symmetry_space_group_name_H-M 'P n m a'
_symmetry_Int_Tables_number 62
loop_
_symmetry_equiv_pos_site_id
_symmetry_equiv_pos_as_xyz
1 'x+1/2, y, -z+1/2'
2 'x, -y+1/2, z'
3 '-x+1/2, y+1/2, z+1/2'
4 '-x, -y, -z'
5 '-x+1/2, -y, z+1/2'
6 '-x, y+1/2, -z'
7 'x+1/2, -y+1/2, -z+1/2'
8 'x, y, z'
loop_
_atom_type_symbol
_atom_type_oxidation_number
Re0+ 0
Co0+ 0
B0+ 0
loop_
_atom_site_label
_atom_site_type_symbol
_atom_site_symmetry_multiplicity
_atom_site_Wyckoff_symbol
_atom_site_fract_x
_atom_site_fract_y
_atom_site_fract_z
_atom_site_B_iso_or_equiv
_atom_site_occupancy
_atom_site_attached_hydrogens
Re1 Re0+ 4 c 0.021 0.25 0.18 . 1. 0
Co1 Co0+ 4 c 0.142 0.25 0.561 . 1. 0
B1 B0+ 4 c 0.765 0.25 0.623 . 1. 0
#End of TTdata_20079-ICSD