
#(C) 2017 by FIZ Karlsruhe - Leibniz Institute for Information Infrastructure.  All rights reserved.
data_20081-ICSD
_database_code_ICSD 20081
_audit_creation_date 1980-01-01
_audit_update_record 2008-02-01
_chemical_name_systematic 'Yttrium molybdenum boride (1/1/4)'
_chemical_formula_structural 'Y Mo B4'
_chemical_formula_sum 'B4 Mo1 Y1'
_chemical_name_structure_type FeSmB4-CrYB4
_exptl_crystal_density_diffrn 6.01
_publ_section_title
'The system yttrium - molybdenum - boron and yttrium tungsten - boron'
loop_
_citation_id
_citation_journal_full
_citation_year
_citation_journal_volume
_citation_page_first
_citation_page_last
_citation_journal_id_ASTM
primary 'Izvestiya Akademii Nauk SSSR, Neorganicheskie Materialy' 1973 9 1697
1702 IVNMAW
loop_
_publ_author_name
'Kuz'ma, Yu.B.'
'Svarichevskaya, S.I.'
'Sobolev, A.S.'
_cell_length_a 6.016(5)
_cell_length_b 11.65(1)
_cell_length_c 3.598(4)
_cell_angle_alpha 90.
_cell_angle_beta 90.
_cell_angle_gamma 90.
_cell_volume 252.17
_cell_formula_units_Z 4
_symmetry_space_group_name_H-M 'P b a m'
_symmetry_Int_Tables_number 55
loop_
_symmetry_equiv_pos_site_id
_symmetry_equiv_pos_as_xyz
1 'x+1/2, -y+1/2, z'
2 '-x+1/2, y+1/2, z'
3 'x, y, -z'
4 '-x, -y, -z'
5 '-x+1/2, y+1/2, -z'
6 'x+1/2, -y+1/2, -z'
7 '-x, -y, z'
8 'x, y, z'
loop_
_atom_type_symbol
_atom_type_oxidation_number
Y0+ 0
Mo0+ 0
B0+ 0
loop_
_atom_site_label
_atom_site_type_symbol
_atom_site_symmetry_multiplicity
_atom_site_Wyckoff_symbol
_atom_site_fract_x
_atom_site_fract_y
_atom_site_fract_z
_atom_site_B_iso_or_equiv
_atom_site_occupancy
_atom_site_attached_hydrogens
Y1 Y0+ 4 g 0.129 0.15 0 . 1. 0
Mo1 Mo0+ 4 g 0.131 0.416 0 . 1. 0
B1 B0+ 4 h 0.28 0.315 0.5 . 1. 0
B2 B0+ 4 h 0.34 0.465 0.5 . 1. 0
B3 B0+ 4 h 0.385 0.05 0.5 . 1. 0
B4 B0+ 4 h 0.485 0.18 0.5 . 1. 0
#End of TTdata_20081-ICSD