
#(C) 2017 by FIZ Karlsruhe - Leibniz Institute for Information Infrastructure.  All rights reserved.
data_200818-ICSD
_database_code_ICSD 200818
_audit_creation_date 1980-01-01
_audit_update_record 1985-06-19
_chemical_name_systematic 'Oxovanadium(IV) catena-phosphate - beta'
_chemical_formula_structural 'V O (P O3)2'
_chemical_formula_sum 'O7 P2 V1'
_exptl_crystal_density_diffrn 2.9
_publ_section_title 'Crystal structure of beta-V O (P O3)2'
loop_
_citation_id
_citation_journal_full
_citation_year
_citation_journal_volume
_citation_page_first
_citation_page_last
_citation_journal_id_ASTM
primary 'Izvestiya Akademii Nauk SSSR, Neorganicheskie Materialy' 1979 15 2164
2167 IVNMAW
loop_
_publ_author_name
'Krasnikov, V.V.'
'Konstant, Z.A.'
_cell_length_a 10.99(1)
_cell_length_b 10.99(1)
_cell_length_c 4.258(6)
_cell_angle_alpha 90.
_cell_angle_beta 90.
_cell_angle_gamma 90.
_cell_volume 514.28
_cell_formula_units_Z 4
_symmetry_space_group_name_H-M 'I -4 2 d'
_symmetry_Int_Tables_number 122
_refine_ls_R_factor_all 0.089
loop_
_symmetry_equiv_pos_site_id
_symmetry_equiv_pos_as_xyz
1 '-y, -x+1/2, z+1/4'
2 'y, -x, -z'
3 'y, x+1/2, z+1/4'
4 '-y, x, -z'
5 'x, -y+1/2, -z+1/4'
6 '-x, -y, z'
7 '-x, y+1/2, -z+1/4'
8 'x, y, z'
9 '-y+1/2, -x, z+3/4'
10 'y+1/2, -x+1/2, -z+1/2'
11 'y+1/2, x, z+3/4'
12 '-y+1/2, x+1/2, -z+1/2'
13 'x+1/2, -y, -z+3/4'
14 '-x+1/2, -y+1/2, z+1/2'
15 '-x+1/2, y, -z+3/4'
16 'x+1/2, y+1/2, z+1/2'
loop_
_atom_type_symbol
_atom_type_oxidation_number
V4+ 4
P5+ 5
O2- -2
loop_
_atom_site_label
_atom_site_type_symbol
_atom_site_symmetry_multiplicity
_atom_site_Wyckoff_symbol
_atom_site_fract_x
_atom_site_fract_y
_atom_site_fract_z
_atom_site_B_iso_or_equiv
_atom_site_occupancy
_atom_site_attached_hydrogens
V1 V4+ 4 a 0 0 0 0.83 1. 0
P1 P5+ 8 d 0.1659 0.25 0.125 0.92 1. 0
O1 O2- 4 b 0 0 0.5 0.7 1. 0
O2 O2- 8 d 0.6867 0.25 0.125 0.7 1. 0
O3 O2- 16 e 0.0909 0.1489 -.0206 0.7 1. 0
#End of TTdata_200818-ICSD