
#(C) 2017 by FIZ Karlsruhe - Leibniz Institute for Information Infrastructure.  All rights reserved.
data_202044-ICSD
_database_code_ICSD 202044
_audit_creation_date 1988-12-19
_audit_update_record 2012-02-01
_chemical_name_systematic 'Tetragallium germaniun oxide - alpha'
_chemical_formula_structural 'Ga4 (Ge O8)'
_chemical_formula_sum 'Ga4 Ge1 O8'
_chemical_name_structure_type Ga4GeO8
_exptl_crystal_density_diffrn 5.65
_publ_section_title
'New gallium germanates with tunnel structures alpha Ga4 Ge O8 and Ga4 Ge3 O12'
loop_
_citation_id
_citation_journal_full
_citation_year
_citation_journal_volume
_citation_page_first
_citation_page_last
_citation_journal_id_ASTM
primary 'Journal of Solid State Chemistry' 1986 65 377 382 JSSCBI
loop_
_publ_author_name
'Kahn, A.'
'Agafonov, V.'
'Michel, D.'
'Perez y Jorba, M.'
_cell_length_a 12.169(3)
_cell_length_b 3.005(1)
_cell_length_c 9.414(2)
_cell_angle_alpha 90.
_cell_angle_beta 125.06(2)
_cell_angle_gamma 90.
_cell_volume 281.79
_cell_formula_units_Z 2
_symmetry_space_group_name_H-M 'C 1 2/m 1'
_symmetry_Int_Tables_number 12
_refine_ls_R_factor_all 0.029
loop_
_symmetry_equiv_pos_site_id
_symmetry_equiv_pos_as_xyz
1 '-x, y, -z'
2 '-x, -y, -z'
3 'x, -y, z'
4 'x, y, z'
5 '-x+1/2, y+1/2, -z'
6 '-x+1/2, -y+1/2, -z'
7 'x+1/2, -y+1/2, z'
8 'x+1/2, y+1/2, z'
loop_
_atom_type_symbol
_atom_type_oxidation_number
Ge4+ 4
Ga3+ 3
O2- -2
loop_
_atom_site_label
_atom_site_type_symbol
_atom_site_symmetry_multiplicity
_atom_site_Wyckoff_symbol
_atom_site_fract_x
_atom_site_fract_y
_atom_site_fract_z
_atom_site_B_iso_or_equiv
_atom_site_occupancy
_atom_site_attached_hydrogens
Ge1 Ge4+ 2 a 0 0 0 0.29(2) 1. 0
Ga1 Ga3+ 4 i 0.7576(1) 0 0.3596(1) 0.40(1) 1. 0
Ga2 Ga3+ 4 i 0.4621(1) 0 0.2809(1) 0.38(1) 1. 0
O1 O2- 4 i 0.1627(5) 0 0.2183(7) 0.53(7) 1. 0
O2 O2- 4 i 0.6446(5) 0 0.4618(7) 0.49(7) 1. 0
O3 O2- 4 i 0.4403(6) 0 0.0738(7) 0.65(7) 1. 0
O4 O2- 4 i 0.8912(6) 0 0.3064(7) 0.65(8) 1. 0
#End of TTdata_202044-ICSD