
#(C) 2017 by FIZ Karlsruhe - Leibniz Institute for Information Infrastructure.  All rights reserved.
data_202069-ICSD
_database_code_ICSD 202069
_audit_creation_date 1988-12-19
_chemical_name_systematic 'Potassium lead bromide hydrate'
_chemical_formula_structural 'K Pb Br3 (H2 O)'
_chemical_formula_sum 'H2 Br3 K1 O1 Pb1'
_chemical_name_structure_type KHgBr3H2O
_exptl_crystal_density_diffrn 4.32
_publ_section_title
'Darstellug und Kristallstrukturuntersuchung von K Pb Br3 * H2 O'
loop_
_citation_id
_citation_journal_full
_citation_year
_citation_journal_volume
_citation_page_first
_citation_page_last
_citation_journal_id_ASTM
primary 'Journal of the Less-Common Metals' 1986 125 215 221 JCOMAH
loop_
_publ_author_name
'Keller, H.L.'
'Jess, I.'
_cell_length_a 4.414
_cell_length_b 19.728
_cell_length_c 8.904
_cell_angle_alpha 90.
_cell_angle_beta 90.
_cell_angle_gamma 90.
_cell_volume 775.35
_cell_formula_units_Z 4
_symmetry_space_group_name_H-M 'C m c 21'
_symmetry_Int_Tables_number 36
_refine_ls_R_factor_all 0.0655
loop_
_symmetry_equiv_pos_site_id
_symmetry_equiv_pos_as_xyz
1 'x, -y, z+1/2'
2 '-x, -y, z+1/2'
3 '-x, y, z'
4 'x, y, z'
5 'x+1/2, -y+1/2, z+1/2'
6 '-x+1/2, -y+1/2, z+1/2'
7 '-x+1/2, y+1/2, z'
8 'x+1/2, y+1/2, z'
loop_
_atom_type_symbol
_atom_type_oxidation_number
Pb2+ 2
Br1- -1
K1+ 1
O2- -2
H1+ 1
loop_
_atom_site_label
_atom_site_type_symbol
_atom_site_symmetry_multiplicity
_atom_site_Wyckoff_symbol
_atom_site_fract_x
_atom_site_fract_y
_atom_site_fract_z
_atom_site_B_iso_or_equiv
_atom_site_occupancy
_atom_site_attached_hydrogens
Pb1 Pb2+ 4 a 0 0.1662 0 . 1. 0
Br1 Br1- 4 a 0 0.6139(1) 0.1970(4) . 1. 0
Br2 Br1- 4 a 0 0.0410(1) 0.8602(3) . 1. 0
Br3 Br1- 4 a 0 0.7146(1) 0.7830(4) . 1. 0
K1 K1+ 4 a 0 0.5524(4) 0.5736(10) . 1. 0
O1 O2- 4 a 0 0.8639(15) 0.023(2) . 1. 0
loop_
_atom_site_aniso_label
_atom_site_aniso_type_symbol
_atom_site_aniso_U_11
_atom_site_aniso_U_22
_atom_site_aniso_U_33
_atom_site_aniso_U_12
_atom_site_aniso_U_13
_atom_site_aniso_U_23
Pb1 Pb2+ 0.024(1) 0.025(1) 0.020(1) 0 0 -.002(1)
Br1 Br1- 0.031(1) 0.037(1) 0.019(1) 0 0 0.003(1)
Br2 Br1- 0.034(1) 0.026(1) 0.021(1) 0 0 -.004(1)
Br3 Br1- 0.037(1) 0.030(1) 0.035(1) 0 0 0.011(1)
K1 K1+ 0.040(3) 0.051(3) 0.028(3) 0 0 0.001(3)
O1 O2- 0.038(5) 0.076(6) 0.005(5) 0 0 0.007(5)
#End of TTdata_202069-ICSD