
#(C) 2017 by FIZ Karlsruhe - Leibniz Institute for Information Infrastructure.  All rights reserved.
data_202103-ICSD
_database_code_ICSD 202103
_audit_creation_date 1988-12-19
_audit_update_record 2013-08-01
_chemical_name_systematic 'Zirconium boron iodide (6/1/12)'
_chemical_formula_structural 'Zr6 B I12'
_chemical_formula_sum 'B1 I12 Zr6'
_chemical_name_structure_type Sc7Cl12
_exptl_crystal_density_diffrn 5.67
_publ_section_title
'Four zirconium iodide cluster phases centered by boron, aluminum, or silicon'
loop_
_citation_id
_citation_journal_full
_citation_year
_citation_journal_volume
_citation_page_first
_citation_page_last
_citation_journal_id_ASTM
primary 'Journal of the American Chemical Society' 1986 108 1927 1934 JACSAT
loop_
_publ_author_name
'Smith, J.D.'
'Corbett, J.D.'
_cell_length_a 14.534(1)
_cell_length_b 14.534(1)
_cell_length_c 9.986(1)
_cell_angle_alpha 90.
_cell_angle_beta 90.
_cell_angle_gamma 120.
_cell_volume 1826.81
_cell_formula_units_Z 3
_symmetry_space_group_name_H-M 'R -3 H'
_symmetry_Int_Tables_number 148
_refine_ls_R_factor_all 0.066
loop_
_symmetry_equiv_pos_site_id
_symmetry_equiv_pos_as_xyz
1 'x-y, x, -z'
2 'y, -x+y, -z'
3 '-x, -y, -z'
4 '-x+y, -x, z'
5 '-y, x-y, z'
6 'x, y, z'
7 'x-y+2/3, x+1/3, -z+1/3'
8 'y+2/3, -x+y+1/3, -z+1/3'
9 '-x+2/3, -y+1/3, -z+1/3'
10 '-x+y+2/3, -x+1/3, z+1/3'
11 '-y+2/3, x-y+1/3, z+1/3'
12 'x+2/3, y+1/3, z+1/3'
13 'x-y+1/3, x+2/3, -z+2/3'
14 'y+1/3, -x+y+2/3, -z+2/3'
15 '-x+1/3, -y+2/3, -z+2/3'
16 '-x+y+1/3, -x+2/3, z+2/3'
17 '-y+1/3, x-y+2/3, z+2/3'
18 'x+1/3, y+2/3, z+2/3'
loop_
_atom_type_symbol
_atom_type_oxidation_number
I1- -1
Zr1+ 1.5
B3+ 3
loop_
_atom_site_label
_atom_site_type_symbol
_atom_site_symmetry_multiplicity
_atom_site_Wyckoff_symbol
_atom_site_fract_x
_atom_site_fract_y
_atom_site_fract_z
_atom_site_B_iso_or_equiv
_atom_site_occupancy
_atom_site_attached_hydrogens
I1 I1- 18 f 0.35493(7) 0.10245(6) 0.33197(8) . 1. 0
I2 I1- 18 f 0.12708(6) 0.17821(7) 0.3270(1) . 1. 0
Zr1 Zr1+ 18 f 0.14634(9) 0.04146(9) 0.1346(1) . 1. 0
B1 B3+ 3 a 0 0 0 0.6(8) 1. 0
loop_
_atom_site_aniso_label
_atom_site_aniso_type_symbol
_atom_site_aniso_B_11
_atom_site_aniso_B_22
_atom_site_aniso_B_33
_atom_site_aniso_B_12
_atom_site_aniso_B_13
_atom_site_aniso_B_23
I1 I1- 1.07(6) 1.38(6) 1.25(6) 0.39(3) -.13(2) 0.23(2)
I2 I1- 1.39(6) 1.60(6) 1.01(6) 0.86(4) -.33(2) -.45(2)
Zr1 Zr1+ 1.02(5) 1.11(5) 0.75(5) 0.54(4) -.12(3) -.05(3)
#End of TTdata_202103-ICSD