
#(C) 2017 by FIZ Karlsruhe - Leibniz Institute for Information Infrastructure.  All rights reserved.
data_2021-ICSD
_database_code_ICSD 2021
_audit_creation_date 1980-01-01
_audit_update_record 2012-08-01
_chemical_name_systematic 'Zinc arsenide (1/2)'
_chemical_formula_structural 'Zn As2'
_chemical_formula_sum 'As2 Zn1'
_chemical_name_structure_type ZnP2(mP)
_exptl_crystal_density_diffrn 5.11
_publ_section_title 'The crystal structure of Zn As2'
loop_
_citation_id
_citation_journal_full
_citation_year
_citation_journal_volume
_citation_page_first
_citation_page_last
_citation_journal_id_ASTM
primary 'Acta Crystallographica B (24,1968-38,1982)' 1974 30 122 126 ACBCAR
loop_
_publ_author_name
'Fleet, M.E.'
_cell_length_a 9.287(1)
_cell_length_b 7.691(2)
_cell_length_c 8.010(1)
_cell_angle_alpha 90.
_cell_angle_beta 102.28(1)
_cell_angle_gamma 90.
_cell_volume 559.03
_cell_formula_units_Z 8
_symmetry_space_group_name_H-M 'P 1 21/c 1'
_symmetry_Int_Tables_number 14
_refine_ls_R_factor_all 0.05
loop_
_symmetry_equiv_pos_site_id
_symmetry_equiv_pos_as_xyz
1 'x, -y+1/2, z+1/2'
2 '-x, -y, -z'
3 '-x, y+1/2, -z+1/2'
4 'x, y, z'
loop_
_atom_type_symbol
_atom_type_oxidation_number
Zn0+ 0
As0+ 0
loop_
_atom_site_label
_atom_site_type_symbol
_atom_site_symmetry_multiplicity
_atom_site_Wyckoff_symbol
_atom_site_fract_x
_atom_site_fract_y
_atom_site_fract_z
_atom_site_B_iso_or_equiv
_atom_site_occupancy
_atom_site_attached_hydrogens
Zn1 Zn0+ 4 e 0.0809(2) 0.7479(8) 0.3957(2) . 1. 0
Zn2 Zn0+ 4 e 0.3925(6) 0.0963(5) 0.2207(8) . 1. 0
As1 As0+ 4 e 0.3803(5) 0.4224(5) 0.2226(7) . 1. 0
As2 As0+ 4 e 0.2401(5) 0.0130(5) 0.4345(7) . 1. 0
As3 As0+ 4 e 0.2414(5) 0.4918(5) 0.4368(5) . 1. 0
As4 As0+ 4 e 0.0691(2) 0.2532(7) 0.3919(2) . 1. 0
loop_
_atom_site_aniso_label
_atom_site_aniso_type_symbol
_atom_site_aniso_B_11
_atom_site_aniso_B_22
_atom_site_aniso_B_33
_atom_site_aniso_B_12
_atom_site_aniso_B_13
_atom_site_aniso_B_23
Zn1 Zn0+ 0.96(7) 0.81(7) 0.96(7) 0 0.5(1) 0
Zn2 Zn0+ 0.3(1) 1.3(1) 0.9(2) 0 -.2(3) 0
As1 As0+ 0.8(1) 1.2(1) 0.7(1) 0 0.7(2) 0
As2 As0+ 1.0(2) 0.5(1) 0.4(2) 0 0.4(3) 0
As3 As0+ 0.9(2) 0.7(1) 1.1(2) 0 0.7(2) 0
As4 As0+ 0.59(5) 1.04(7) 0.71(6) 0 0.3(1) 0
#End of TTdata_2021-ICSD