
#(C) 2017 by FIZ Karlsruhe - Leibniz Institute for Information Infrastructure.  All rights reserved.
data_202494-ICSD
_database_code_ICSD 202494
_audit_creation_date 1988-05-17
_audit_update_record 2007-08-01
_chemical_name_systematic 'Dicesium tetraiodocadmate - alpha'
_chemical_formula_structural 'Cs2 (Cd I4)'
_chemical_formula_sum 'Cd1 Cs2 I4'
_chemical_name_structure_type K2ZnBr4
_exptl_crystal_density_diffrn 4.32
_publ_section_title 'Polymorphisme de l'iodure de cesium et de cadmium'
loop_
_citation_id
_citation_journal_full
_citation_year
_citation_journal_volume
_citation_page_first
_citation_page_last
_citation_journal_id_ASTM
primary 'Revue de Chimie Minerale' 1987 24 414 426 RVCMA8
loop_
_publ_author_name
'Touchard, V.'
'Louer, M.'
'Auufredic, J.P.'
'Louer, D.'
_cell_length_a 7.838(3)
_cell_length_b 8.403(3)
_cell_length_c 11.048(3)
_cell_angle_alpha 90.
_cell_angle_beta 110.57(4)
_cell_angle_gamma 90.
_cell_volume 681.26
_cell_formula_units_Z 2
_symmetry_space_group_name_H-M 'P 1 21/m 1'
_symmetry_Int_Tables_number 11
_refine_ls_R_factor_all 0.059
loop_
_symmetry_equiv_pos_site_id
_symmetry_equiv_pos_as_xyz
1 'x, -y+1/2, z'
2 '-x, -y, -z'
3 '-x, y+1/2, -z'
4 'x, y, z'
loop_
_atom_type_symbol
_atom_type_oxidation_number
Cs1+ 1
I1- -1
Cd2+ 2
loop_
_atom_site_label
_atom_site_type_symbol
_atom_site_symmetry_multiplicity
_atom_site_Wyckoff_symbol
_atom_site_fract_x
_atom_site_fract_y
_atom_site_fract_z
_atom_site_B_iso_or_equiv
_atom_site_occupancy
_atom_site_attached_hydrogens
Cs1 Cs1+ 2 e 0.2793(2) 0.25 0.5925(1) 5.15(3) 1. 0
Cs2 Cs1+ 2 e 0.8412(2) 0.25 0.0318(1) 4.28(3) 1. 0
I1 I1- 4 f 0.7552(1) 0.4882(1) 0.71323(9) 4.23(2) 1. 0
I2 I1- 2 e 0.3128(2) 0.25 -.04597(13) 5.54(4) 1. 0
I3 I1- 2 e 0.7794(2) 0.25 0.35694(14) 5.72(4) 1. 0
Cd1 Cd2+ 2 e 0.5898(2) 0.75 0.7771(1) 3.54(3) 1. 0
#End of TTdata_202494-ICSD