
#(C) 2017 by FIZ Karlsruhe - Leibniz Institute for Information Infrastructure.  All rights reserved.
data_202451-ICSD
_database_code_ICSD 202451
_audit_creation_date 1988-05-17
_audit_update_record 1992-08-19
_chemical_name_systematic 'Copper tellurite'
_chemical_formula_structural 'Cu Te O3'
_chemical_formula_sum 'Cu1 O3 Te1'
_exptl_crystal_density_diffrn 5.63
_publ_section_title

;
Dimorphism of hydrothermal synthesized copper tellurite Cu Te O3: The
structure of a monoclinic representative
;
loop_
_citation_id
_citation_journal_full
_citation_year
_citation_journal_volume
_citation_page_first
_citation_page_last
_citation_journal_id_ASTM
primary 'Journal of Solid State Chemistry' 1987 71 291 295 JSSCBI
loop_
_publ_author_name
'Pertlik, F.'
_cell_length_a 5.214(1)
_cell_length_b 9.108(2)
_cell_length_c 5.965(1)
_cell_angle_alpha 90.
_cell_angle_beta 95.06(1)
_cell_angle_gamma 90.
_cell_volume 282.17
_cell_formula_units_Z 4
_symmetry_space_group_name_H-M 'P 1 21/n 1'
_symmetry_Int_Tables_number 14
_refine_ls_R_factor_all 0.035
loop_
_symmetry_equiv_pos_site_id
_symmetry_equiv_pos_as_xyz
1 '-x+1/2, y+1/2, -z+1/2'
2 '-x, -y, -z'
3 'x+1/2, -y+1/2, z+1/2'
4 'x, y, z'
loop_
_atom_type_symbol
_atom_type_oxidation_number
Cu2+ 2
Te4+ 4
O2- -2
loop_
_atom_site_label
_atom_site_type_symbol
_atom_site_symmetry_multiplicity
_atom_site_Wyckoff_symbol
_atom_site_fract_x
_atom_site_fract_y
_atom_site_fract_z
_atom_site_B_iso_or_equiv
_atom_site_occupancy
_atom_site_attached_hydrogens
Cu1 Cu2+ 4 e 0.7425(1) 0.5187(1) 0.3695(1) . 1. 0
Te1 Te4+ 4 e 0.7576(1) 0.2025(1) 0.5995(1) . 1. 0
O1 O2- 4 e 0.9099(7) 0.3929(4) 0.6096(6) . 1. 0
O2 O2- 4 e 0.9360(7) 0.1370(4) 0.3609(6) . 1. 0
O3 O2- 4 e -.0092(7) 0.1396(4) 0.8482(6) . 1. 0
loop_
_atom_site_aniso_label
_atom_site_aniso_type_symbol
_atom_site_aniso_U_11
_atom_site_aniso_U_22
_atom_site_aniso_U_33
_atom_site_aniso_U_12
_atom_site_aniso_U_13
_atom_site_aniso_U_23
Cu1 Cu2+ 0.0085(3) 0.0111(2) 0.0098(2) -.0012(2) 0.0005(2) 0.0023(2)
Te1 Te4+ 0.0077(1) 0.0088(1) 0.0069(1) -.0006(1) 0.0010(1) 0.0003(1)
O1 O2- 0.0104(13) 0.0102(13) 0.0140(14) 0.0008(13) -.0015(10) 0.0007(12)
O2 O2- 0.0099(14) 0.0192(15) 0.0091(13) -.0012(14) 0.0055(9) -.0033(12)
O3 O2- 0.0123(14) 0.0127(13) 0.0084(13) 0.0048(12) -.0018(10) -.0008(11)
#End of TTdata_202451-ICSD