
#(C) 2017 by FIZ Karlsruhe - Leibniz Institute for Information Infrastructure.  All rights reserved.
data_202528-ICSD
_database_code_ICSD 202528
_audit_creation_date 1988-12-19
_chemical_name_systematic 'Trithallium trithioborate'
_chemical_formula_structural 'Tl3 B S3'
_chemical_formula_sum 'B1 S3 Tl3'
_chemical_name_structure_type Tl3BSe3
_exptl_crystal_density_diffrn 6.84
_cell_measurement_temperature 295.
_publ_section_title

;
Ortho-Thioborates and Ortho-Selenoborates: Synthesis, Structure and Properties
of Tl3 B S3 and Tl3 B Se3
;
loop_
_citation_id
_citation_journal_full
_citation_year
_citation_journal_volume
_citation_page_first
_citation_page_last
_citation_journal_id_ASTM
primary 'Journal of the Less-Common Metals' 1988 137 143 154 JCOMAH
loop_
_publ_author_name
'Krebs, B.'
'Hamann, W.'
_cell_length_a 5.444(2)
_cell_length_b 9.699(3)
_cell_length_c 6.690(2)
_cell_angle_alpha 90.
_cell_angle_beta 98.13
_cell_angle_gamma 90.
_cell_volume 349.69
_cell_formula_units_Z 2
_symmetry_space_group_name_H-M 'P 1 21/m 1'
_symmetry_Int_Tables_number 11
_refine_ls_R_factor_all 0.052
loop_
_symmetry_equiv_pos_site_id
_symmetry_equiv_pos_as_xyz
1 'x, -y+1/2, z'
2 '-x, -y, -z'
3 '-x, y+1/2, -z'
4 'x, y, z'
loop_
_atom_type_symbol
_atom_type_oxidation_number
Tl1+ 1
S2- -2
B3+ 3
loop_
_atom_site_label
_atom_site_type_symbol
_atom_site_symmetry_multiplicity
_atom_site_Wyckoff_symbol
_atom_site_fract_x
_atom_site_fract_y
_atom_site_fract_z
_atom_site_B_iso_or_equiv
_atom_site_occupancy
_atom_site_attached_hydrogens
Tl1 Tl1+ 2 e 0.8232(3) 0.25 -.0254(2) . 1. 0
Tl2 Tl1+ 4 f 0.7298(2) 0.5553(2) 0.3290(2) . 1. 0
S1 S2- 2 e 0.6772(21) 0.25 0.4384(14) 1.72(12) 1. 0
S2 S2- 4 f 0.2461(15) 0.0858(7) 0.1722(14) 1.64(12) 1. 0
B1 B3+ 2 e 0.396(8) 0.25 0.254(7) 2.0(8) 1. 0
loop_
_atom_site_aniso_label
_atom_site_aniso_type_symbol
_atom_site_aniso_B_11
_atom_site_aniso_B_22
_atom_site_aniso_B_33
_atom_site_aniso_B_12
_atom_site_aniso_B_13
_atom_site_aniso_B_23
Tl1 Tl1+ 2.45(7) 2.03(6) 0.77(6) 0 -.03(6) 0
Tl2 Tl1+ 3.06(6) 1.90(5) 1.06(5) -.63(4) 0.52(4) -.35(4)
#End of TTdata_202528-ICSD