
#(C) 2017 by FIZ Karlsruhe - Leibniz Institute for Information Infrastructure.  All rights reserved.
data_202755-ICSD
_database_code_ICSD 202755
_audit_creation_date 1989-12-04
_audit_update_record 2005-10-01
_chemical_name_systematic 'Chromium vanadate'
_chemical_formula_structural 'Cr V O4'
_chemical_formula_sum 'Cr1 O4 V1'
_chemical_name_structure_type CrVO4
_exptl_crystal_density_diffrn 4.01
_publ_section_title 'Synthesis and magnetic properties of crystalline Cr V O4'
loop_
_citation_id
_citation_journal_full
_citation_year
_citation_journal_volume
_citation_page_first
_citation_page_last
_citation_journal_id_ASTM
primary 'Materials Research Bulletin' 1988 23 595 601 MRBUAC
loop_
_publ_author_name
'Isasi, M.J.'
'Saez-Puche, R.'
'Veiga, M.L.'
'Pico, C.'
'Jerez, A.'
_cell_length_a 5.589
_cell_length_b 8.252(1)
_cell_length_c 5.993(1)
_cell_angle_alpha 90.
_cell_angle_beta 90.
_cell_angle_gamma 90.
_cell_volume 276.4
_cell_formula_units_Z 4
_symmetry_space_group_name_H-M 'C m c m'
_symmetry_Int_Tables_number 63
loop_
_symmetry_equiv_pos_site_id
_symmetry_equiv_pos_as_xyz
1 '-x, y, -z+1/2'
2 '-x, -y, z+1/2'
3 '-x, y, z'
4 '-x, -y, -z'
5 'x, -y, z+1/2'
6 'x, y, -z+1/2'
7 'x, -y, -z'
8 'x, y, z'
9 '-x+1/2, y+1/2, -z+1/2'
10 '-x+1/2, -y+1/2, z+1/2'
11 '-x+1/2, y+1/2, z'
12 '-x+1/2, -y+1/2, -z'
13 'x+1/2, -y+1/2, z+1/2'
14 'x+1/2, y+1/2, -z+1/2'
15 'x+1/2, -y+1/2, -z'
16 'x+1/2, y+1/2, z'
loop_
_atom_type_symbol
_atom_type_oxidation_number
Cr3+ 3
V5+ 5
O2- -2
loop_
_atom_site_label
_atom_site_type_symbol
_atom_site_symmetry_multiplicity
_atom_site_Wyckoff_symbol
_atom_site_fract_x
_atom_site_fract_y
_atom_site_fract_z
_atom_site_B_iso_or_equiv
_atom_site_occupancy
_atom_site_attached_hydrogens
Cr1 Cr3+ 4 a 0 0 0 . 1. 0
V1 V5+ 4 c 0 0.353 0.25 . 1. 0
O1 O2- 8 f 0 0.237 0.011 . 1. 0
O2 O2- 8 g 0.247 -.011 0.25 . 1. 0
#End of TTdata_202755-ICSD