
#(C) 2017 by FIZ Karlsruhe - Leibniz Institute for Information Infrastructure.  All rights reserved.
data_20296-ICSD
_database_code_ICSD 20296
_audit_creation_date 1980-01-01
_audit_update_record 1988-03-29
_chemical_name_systematic 'Manganese diphosphate'
_chemical_formula_structural 'Mn2 P2 O7'
_chemical_formula_sum 'Mn2 O7 P2'
_chemical_name_structure_type Sc2Si2O7
_exptl_crystal_density_diffrn 3.74
_publ_section_title 'Struktura Krystaliczna Pirofosforanu Manganu Mn2 P2 O7'
loop_
_citation_id
_citation_journal_full
_citation_year
_citation_journal_volume
_citation_page_first
_citation_page_last
_citation_journal_id_ASTM
primary 'Roczniki Chemii' 1961 35 741 744 ROCHAC
loop_
_publ_author_name
'Lukaszewicz, K.'
'Smajkiewicz, R.'
_cell_length_a 6.63(2)
_cell_length_b 8.58(2)
_cell_length_c 4.54(1)
_cell_angle_alpha 90.
_cell_angle_beta 102.66(16)
_cell_angle_gamma 90.
_cell_volume 251.98
_cell_formula_units_Z 2
_symmetry_space_group_name_H-M 'C 1 2/m 1'
_symmetry_Int_Tables_number 12
_refine_ls_R_factor_all 0.18
loop_
_symmetry_equiv_pos_site_id
_symmetry_equiv_pos_as_xyz
1 '-x, y, -z'
2 '-x, -y, -z'
3 'x, -y, z'
4 'x, y, z'
5 '-x+1/2, y+1/2, -z'
6 '-x+1/2, -y+1/2, -z'
7 'x+1/2, -y+1/2, z'
8 'x+1/2, y+1/2, z'
loop_
_atom_type_symbol
_atom_type_oxidation_number
Mn2+ 2
P5+ 5
O2- -2
loop_
_atom_site_label
_atom_site_type_symbol
_atom_site_symmetry_multiplicity
_atom_site_Wyckoff_symbol
_atom_site_fract_x
_atom_site_fract_y
_atom_site_fract_z
_atom_site_B_iso_or_equiv
_atom_site_occupancy
_atom_site_attached_hydrogens
Mn1 Mn2+ 4 h 0 0.307 0.5 . 1. 0
P1 P5+ 4 i 0.21 0 0.892 . 1. 0
O1 O2- 2 a 0 0 0 . 1. 0
O2 O2- 4 i 0.392 0 0.233 . 1. 0
O3 O2- 8 j 0.233 0.155 0.708 . 1. 0
#End of TTdata_20296-ICSD