
#(C) 2017 by FIZ Karlsruhe - Leibniz Institute for Information Infrastructure.  All rights reserved.
data_203188-ICSD
_database_code_ICSD 203188
_audit_creation_date 1990-12-27
_chemical_name_systematic 'Dirubidium dimercury palladium bromide'
_chemical_formula_structural 'Rb2 Hg2 Pd Br8'
_chemical_formula_sum 'Br8 Hg2 Pd1 Rb2'
_chemical_name_structure_type Tl2Hg2PdCl8
_exptl_crystal_density_diffrn 5.39
_publ_section_title

;
Zur Kenntnis der Neuen Verbindungsgruppe A2 Hg2 Pd X8 (Mit A=Rb,Tl; X=Cl,Br)
Mit Eigenem Strukturtyp
;
loop_
_citation_id
_citation_journal_full
_citation_year
_citation_journal_volume
_citation_page_first
_citation_page_last
_citation_journal_id_ASTM
primary 'Journal of the Less-Common Metals' 1989 154 295 307 JCOMAH
loop_
_publ_author_name
'Keller, H.K.'
'Schroeder, L.'
_cell_length_a 11.852(12)
_cell_length_b 7.097(8)
_cell_length_c 10.244(14)
_cell_angle_alpha 90.
_cell_angle_beta 109.5(1)
_cell_angle_gamma 90.
_cell_volume 812.24
_cell_formula_units_Z 2
_symmetry_space_group_name_H-M 'C 1 2/m 1'
_symmetry_Int_Tables_number 12
_refine_ls_R_factor_all 0.0735
loop_
_symmetry_equiv_pos_site_id
_symmetry_equiv_pos_as_xyz
1 '-x, y, -z'
2 '-x, -y, -z'
3 'x, -y, z'
4 'x, y, z'
5 '-x+1/2, y+1/2, -z'
6 '-x+1/2, -y+1/2, -z'
7 'x+1/2, -y+1/2, z'
8 'x+1/2, y+1/2, z'
loop_
_atom_type_symbol
_atom_type_oxidation_number
Rb1+ 1
Hg2+ 2
Pd2+ 2
Br1- -1
loop_
_atom_site_label
_atom_site_type_symbol
_atom_site_symmetry_multiplicity
_atom_site_Wyckoff_symbol
_atom_site_fract_x
_atom_site_fract_y
_atom_site_fract_z
_atom_site_B_iso_or_equiv
_atom_site_occupancy
_atom_site_attached_hydrogens
Rb1 Rb1+ 4 i 0.3973(3) 0 0.1665(4) . 1. 0
Hg1 Hg2+ 4 i 0.1321(1) 0 0.3926(2) . 1. 0
Pd1 Pd2+ 2 a 0 0 0 . 1. 0
Br1 Br1- 8 j 0.6349(2) 0.2619(5) 0.1337(3) . 1. 0
Br2 Br1- 4 i 0.9144(3) 0 0.3050(4) . 1. 0
Br3 Br1- 4 i 0.3484(3) 0 0.5021(4) . 1. 0
loop_
_atom_site_aniso_label
_atom_site_aniso_type_symbol
_atom_site_aniso_U_11
_atom_site_aniso_U_22
_atom_site_aniso_U_33
_atom_site_aniso_U_12
_atom_site_aniso_U_13
_atom_site_aniso_U_23
Rb1 Rb1+ 0.031(2) 0.038(3) 0.030(2) 0 0.019(2) 0
Hg1 Hg2+ 0.012(1) 0.052(1) 0.027(1) 0 0.005(1) 0
Pd1 Pd2+ 0.012(2) 0.008(2) 0.013(2) 0 0.004(1) 0
Br1 Br1- 0.029(1) 0.034(2) 0.040(2) 0.002(1) 0.010(1) 0.002(2)
Br2 Br1- 0.015(2) 0.065(3) 0.025(2) 0 0.010(2) 0
Br3 Br1- 0.015(2) 0.062(3) 0.023(2) 0 0.004(2) 0
#End of TTdata_203188-ICSD