
#(C) 2017 by FIZ Karlsruhe - Leibniz Institute for Information Infrastructure.  All rights reserved.
data_20374-ICSD
_database_code_ICSD 20374
_audit_creation_date 1980-01-01
_audit_update_record 2016-02-01
_chemical_name_systematic 'Dithallium diantimony selenide'
_chemical_formula_structural 'Tl2 Sb2 Se4'
_chemical_formula_sum 'Sb2 Se4 Tl2'
_chemical_name_structure_type TlSbSe2
_exptl_crystal_density_diffrn 7.12
_publ_section_title
'The electron diffraction determination of the structure of Tl2 Sb2 Se4'
loop_
_citation_id
_citation_journal_full
_citation_year
_citation_journal_volume
_citation_page_first
_citation_page_last
_citation_journal_id_ASTM
primary 'Doklady Akademii Nauk SSSR' 1956 106 1003 1006 DANKAS
loop_
_publ_author_name
'Pinsker, Z.G.'
'Semiletov, S.A.'
'Belova, E.N.'
_cell_length_a 4.18
_cell_length_b 4.5
_cell_length_c 12.
_cell_angle_alpha 90.
_cell_angle_beta 90.
_cell_angle_gamma 90.
_cell_volume 225.72
_cell_formula_units_Z 1
_symmetry_space_group_name_H-M 'P m n a'
_symmetry_Int_Tables_number 53
_refine_ls_R_factor_all 0.25
loop_
_symmetry_equiv_pos_site_id
_symmetry_equiv_pos_as_xyz
1 'x+1/2, y, -z+1/2'
2 'x+1/2, -y, z+1/2'
3 '-x, y, z'
4 '-x, -y, -z'
5 '-x+1/2, -y, z+1/2'
6 '-x+1/2, y, -z+1/2'
7 'x, -y, -z'
8 'x, y, z'
loop_
_atom_type_symbol
_atom_type_oxidation_number
Sb3- -3
Tl3+ 3
Se0+ 0
loop_
_atom_site_label
_atom_site_type_symbol
_atom_site_symmetry_multiplicity
_atom_site_Wyckoff_symbol
_atom_site_fract_x
_atom_site_fract_y
_atom_site_fract_z
_atom_site_B_iso_or_equiv
_atom_site_occupancy
_atom_site_attached_hydrogens
Sb1 Sb3- 2 a 0 0 0 . 1. 0
Tl1 Tl3+ 2 c 0.5 0.5 0 . 1. 0
Se1 Se0+ 4 h 0 0.5 0.272 . 1. 0
#End of TTdata_20374-ICSD