
data_20676-ICSD
_database_code_ICSD 20676
_audit_creation_date 1986-10-17
_audit_update_record 2010-08-01
_chemical_name_systematic 'Bismuth triiodide - HT'
_chemical_formula_structural 'Bi I3'
_chemical_formula_sum 'Bi1 I3'
_chemical_name_structure_type BiI3(P3-1m)
_exptl_crystal_density_diffrn 5.83
_publ_section_title

;
The electron diffraction analysis of Bi I3 and the modern ideas on the
structure of the layered lattices
;
loop_
_citation_id
_citation_journal_full
_citation_year
_citation_journal_volume
_citation_page_first
_citation_page_last
_citation_journal_id_ASTM
primary 'Trudy Instituta Kristallografii, Akademiya Nauk SSSR' 1952 7 35 48
TIKRAS
loop_
_publ_author_name
'Pinsker, Z.G.'
_cell_length_a 7.5
_cell_length_b 7.5
_cell_length_c 6.9
_cell_angle_alpha 90.
_cell_angle_beta 90.
_cell_angle_gamma 120.
_cell_volume 336.13
_cell_formula_units_Z 2
_symmetry_space_group_name_H-M 'P -3 1 m'
_symmetry_Int_Tables_number 162
loop_
_symmetry_equiv_pos_site_id
_symmetry_equiv_pos_as_xyz
1 '-x+y, y, -z'
2 'x, x-y, -z'
3 '-y, -x, -z'
4 'x-y, x, -z'
5 'y, -x+y, -z'
6 '-x, -y, -z'
7 'x-y, -y, z'
8 '-x, -x+y, z'
9 'y, x, z'
10 '-x+y, -x, z'
11 '-y, x-y, z'
12 'x, y, z'
loop_
_atom_type_symbol
_atom_type_oxidation_number
Bi3+ 3
I1- -1
loop_
_atom_site_label
_atom_site_type_symbol
_atom_site_symmetry_multiplicity
_atom_site_Wyckoff_symbol
_atom_site_fract_x
_atom_site_fract_y
_atom_site_fract_z
_atom_site_B_iso_or_equiv
_atom_site_occupancy
_atom_site_attached_hydrogens
Bi1 Bi3+ 2 c 0.3333 0.6667 0 . 1. 0
I1 I1- 6 k 0.6667 0 0.258(3) . 1. 0
