
#(C) 2017 by FIZ Karlsruhe - Leibniz Institute for Information Infrastructure.  All rights reserved.
data_20754-ICSD
_database_code_ICSD 20754
_audit_creation_date 1980-01-01
_audit_update_record 2006-04-01
_chemical_name_systematic 'Lead(IV) oxide - alpha, LT'
_chemical_formula_structural 'Pb O2'
_chemical_formula_sum 'O2 Pb1'
_chemical_name_structure_type PbO2-alpha
_chemical_name_mineral Scrutinyite
_exptl_crystal_density_diffrn 9.82
_publ_section_title 'The structure of alpha modification of lead dioxide'
loop_
_citation_id
_citation_journal_full
_citation_year
_citation_journal_volume
_citation_page_first
_citation_page_last
_citation_journal_id_ASTM
primary 'Zhurnal Fizicheskoi Khimii' 1952 26 743 752 ZFKHA9
loop_
_publ_author_name
'Zaslavskii, A.I.'
'Tolkachev, S.S.'
_cell_length_a 4.947
_cell_length_b 5.951
_cell_length_c 5.497
_cell_angle_alpha 90.
_cell_angle_beta 90.
_cell_angle_gamma 90.
_cell_volume 161.83
_cell_formula_units_Z 4
_symmetry_space_group_name_H-M 'P b c n'
_symmetry_Int_Tables_number 60
loop_
_symmetry_equiv_pos_site_id
_symmetry_equiv_pos_as_xyz
1 'x, -y, z+1/2'
2 '-x+1/2, y+1/2, z'
3 'x+1/2, y+1/2, -z+1/2'
4 '-x, -y, -z'
5 '-x, y, -z+1/2'
6 'x+1/2, -y+1/2, -z'
7 '-x+1/2, -y+1/2, z+1/2'
8 'x, y, z'
loop_
_atom_type_symbol
_atom_type_oxidation_number
Pb4+ 4
O2- -2
loop_
_atom_site_label
_atom_site_type_symbol
_atom_site_symmetry_multiplicity
_atom_site_Wyckoff_symbol
_atom_site_fract_x
_atom_site_fract_y
_atom_site_fract_z
_atom_site_B_iso_or_equiv
_atom_site_occupancy
_atom_site_attached_hydrogens
Pb1 Pb4+ 4 c 0 0.178 0.25 . 1. 0
O1 O2- 8 d 0.276 0.41 0.425 . 1. 0
#End of TTdata_20754-ICSD