
#(C) 2017 by FIZ Karlsruhe - Leibniz Institute for Information Infrastructure.  All rights reserved.
data_20785-ICSD
_database_code_ICSD 20785
_audit_creation_date 1984-11-20
_audit_update_record 2012-02-01
_chemical_name_systematic 'Cadmium indium gallium sulfide'
_chemical_formula_structural 'Cd In Ga S4'
_chemical_formula_sum 'Cd1 Ga1 In1 S4'
_chemical_name_structure_type CdGaInS4
_exptl_crystal_density_diffrn 4.42
_publ_section_title 'The crystal structure of double-packet Cd In Ga S4'
loop_
_citation_id
_citation_journal_full
_citation_year
_citation_journal_volume
_citation_page_first
_citation_page_last
_citation_journal_id_ASTM
primary 'Doklady Akademii Nauk Azerbaidzhanskoi SSR' 1983 39 19 21 DAZRA7
loop_
_publ_author_name
'Kyazimov, M.G.'
'Amiraslanov, I.R.'
_cell_length_a 3.869(3)
_cell_length_b 3.869(3)
_cell_length_c 24.668(14)
_cell_angle_alpha 90.
_cell_angle_beta 90.
_cell_angle_gamma 120.
_cell_volume 319.79
_cell_formula_units_Z 2
_symmetry_space_group_name_H-M 'P -3 m 1'
_symmetry_Int_Tables_number 164
_refine_ls_R_factor_all 0.112
loop_
_symmetry_equiv_pos_site_id
_symmetry_equiv_pos_as_xyz
1 'x-y, -y, -z'
2 '-x, -x+y, -z'
3 'y, x, -z'
4 'x-y, x, -z'
5 'y, -x+y, -z'
6 '-x, -y, -z'
7 '-x+y, y, z'
8 'x, x-y, z'
9 '-y, -x, z'
10 '-x+y, -x, z'
11 '-y, x-y, z'
12 'x, y, z'
loop_
_atom_type_symbol
_atom_type_oxidation_number
Cd2+ 2
In3+ 3
Ga3+ 3
S2- -2
loop_
_atom_site_label
_atom_site_type_symbol
_atom_site_symmetry_multiplicity
_atom_site_Wyckoff_symbol
_atom_site_fract_x
_atom_site_fract_y
_atom_site_fract_z
_atom_site_B_iso_or_equiv
_atom_site_occupancy
_atom_site_attached_hydrogens
Cd1 Cd2+ 2 c 0 0 0.2500(4) . 1. 0
In1 In3+ 2 d 0.3333 0.6667 0.5959(4) . 1. 0
Ga1 Ga3+ 2 d 0.3333 0.6667 0.0959(4) . 1. 0
S1 S2- 2 d 0.3333 0.6667 0.6947(8) . 1. 0
S2 S2- 2 d 0.3333 0.6667 0.1947(8) . 1. 0
S3 S2- 2 d 0.3333 0.6667 0.4386(11) . 1. 0
S4 S2- 2 d 0.3333 0.6667 0.9386(14) . 1. 0
#End of TTdata_20785-ICSD