
data_21039-ICSD
_database_code_ICSD 21039
_audit_creation_date 1980-01-01
_audit_update_record 2006-04-01
_chemical_name_systematic 'Tetralead selenide hexabromide'
_chemical_formula_structural 'Pb4 Se Br6'
_chemical_formula_sum 'Br6 Pb4 Se1'
_exptl_crystal_density_diffrn 6.89
_cell_length_a 4.361(2)
_cell_length_b 15.780(8)
_cell_length_c 9.720(5)
_cell_angle_alpha 90.
_cell_angle_beta 90.
_cell_angle_gamma 90.
_cell_volume 668.9
_cell_formula_units_Z 2
_symmetry_space_group_name_H-M 'I m m 2'
_symmetry_Int_Tables_number 44
_refine_ls_R_factor_all 0.054
loop_
_symmetry_equiv_pos_site_id
_symmetry_equiv_pos_as_xyz
1 'x, -y, z'
2 '-x, y, z'
3 '-x, -y, z'
4 'x, y, z'
5 'x+1/2, -y+1/2, z+1/2'
6 '-x+1/2, y+1/2, z+1/2'
7 '-x+1/2, -y+1/2, z+1/2'
8 'x+1/2, y+1/2, z+1/2'
loop_
_atom_type_symbol
_atom_type_oxidation_number
Pb2+ 2
Se2- -2
Br1- -1
loop_
_atom_site_label
_atom_site_type_symbol
_atom_site_symmetry_multiplicity
_atom_site_Wyckoff_symbol
_atom_site_fract_x
_atom_site_fract_y
_atom_site_fract_z
_atom_site_B_iso_or_equiv
_atom_site_occupancy
_atom_site_attached_hydrogens
Pb1 Pb2+ 2 a 0 0 0.0251(4) . 1. 0
Pb2 Pb2+ 2 b 0 0.5 0 . 1. 0
Pb3 Pb2+ 4 d 0 0.2377(2) 0.7827(4) . 1. 0
Se1 Se2- 2 a 0 0 0.7048(6) . 1. 0
Br1 Br1- 4 d 0 0.1138(3) 0.2982(5) . 1. 0
Br2 Br1- 4 d 0 0.3663(3) 0.4661(5) . 1. 0
Br3 Br1- 4 d 0 0.3149(3) 0.0784(5) . 1. 0
