
data_22063-ICSD
_database_code_ICSD 22063
_audit_creation_date 1980-01-01
_chemical_name_systematic 'Potassium trioxoplumbate'
_chemical_formula_structural 'K2 Pb O3'
_chemical_formula_sum 'K2 O3 Pb1'
_chemical_name_structure_type Na2SiO3
_exptl_crystal_density_diffrn 4.91
_cell_length_a 10.64
_cell_length_b 7.09
_cell_length_c 5.98
_cell_angle_alpha 90.
_cell_angle_beta 90.
_cell_angle_gamma 90.
_cell_volume 451.12
_cell_formula_units_Z 4
_symmetry_space_group_name_H-M 'C m c 21'
_symmetry_Int_Tables_number 36
_refine_ls_R_factor_all 0.16
loop_
_symmetry_equiv_pos_site_id
_symmetry_equiv_pos_as_xyz
1 'x, -y, z+1/2'
2 '-x, -y, z+1/2'
3 '-x, y, z'
4 'x, y, z'
5 'x+1/2, -y+1/2, z+1/2'
6 '-x+1/2, -y+1/2, z+1/2'
7 '-x+1/2, y+1/2, z'
8 'x+1/2, y+1/2, z'
loop_
_atom_type_symbol
_atom_type_oxidation_number
Pb4+ 4
K1+ 1
O2- -2
loop_
_atom_site_label
_atom_site_type_symbol
_atom_site_symmetry_multiplicity
_atom_site_Wyckoff_symbol
_atom_site_fract_x
_atom_site_fract_y
_atom_site_fract_z
_atom_site_B_iso_or_equiv
_atom_site_occupancy
_atom_site_attached_hydrogens
Pb1 Pb4+ 4 a 0 0.097 0.25 . 1. 0
K1 K1+ 8 b 0.335 0.139 0.25 . 1. 0
O1 O2- 4 a 0 0.382 0.125 . 1. 0
O2 O2- 8 b 0.136 0 0 . 1. 0
