
#(C) 2017 by FIZ Karlsruhe - Leibniz Institute for Information Infrastructure.  All rights reserved.
data_22123-ICSD
_database_code_ICSD 22123
_audit_creation_date 1986-10-16
_audit_update_record 2012-08-01
_chemical_name_systematic 'Hydrogen bromide dihydrate'
_chemical_formula_structural 'H Br (H2 O)2'
_chemical_formula_sum 'H5 Br1 O2'
_chemical_name_structure_type HCl(H2O)2
_exptl_crystal_density_diffrn 2.2
_cell_measurement_temperature 83.
_publ_section_title

;
The crystal structures of three hydrates of hydrogen bromide, H Br * n H2 O,
n=1,2 and 3.
;
loop_
_citation_id
_citation_journal_full
_citation_year
_citation_journal_volume
_citation_page_first
_citation_page_last
_citation_journal_id_ASTM
primary 'Acta Crystallographica B (24,1968-38,1982)' 1970 26 1893 1899 ACBCAR
loop_
_publ_author_name
'Lundgren, J.O.'
_cell_length_a 4.164(6)
_cell_length_b 12.422(3)
_cell_length_c 6.946(5)
_cell_angle_alpha 90.
_cell_angle_beta 101.21(12)
_cell_angle_gamma 90.
_cell_volume 352.43
_cell_formula_units_Z 4
_symmetry_space_group_name_H-M 'P 1 21/c 1'
_symmetry_Int_Tables_number 14
_refine_ls_R_factor_all 0.091
loop_
_symmetry_equiv_pos_site_id
_symmetry_equiv_pos_as_xyz
1 'x, -y+1/2, z+1/2'
2 '-x, -y, -z'
3 '-x, y+1/2, -z+1/2'
4 'x, y, z'
loop_
_atom_type_symbol
_atom_type_oxidation_number
Br1- -1
O2- -2
H1+ 1
loop_
_atom_site_label
_atom_site_type_symbol
_atom_site_symmetry_multiplicity
_atom_site_Wyckoff_symbol
_atom_site_fract_x
_atom_site_fract_y
_atom_site_fract_z
_atom_site_B_iso_or_equiv
_atom_site_occupancy
_atom_site_attached_hydrogens
Br1 Br1- 4 e 0.0337(3) 0.3302(1) 0.1561(1) . 1. 0
O1 O2- 4 e 0.5700(21) 0.1241(6) 0.0420(12) . 1. 0
O2 O2- 4 e 0.3103(29) 0.0575(7) 0.2996(13) . 1. 0
loop_
_atom_site_aniso_label
_atom_site_aniso_type_symbol
_atom_site_aniso_beta_11
_atom_site_aniso_beta_22
_atom_site_aniso_beta_33
_atom_site_aniso_beta_12
_atom_site_aniso_beta_13
_atom_site_aniso_beta_23
Br1 Br1- 0.0187(14) 0.0008(1) 0.0065(3) 0.0001(2) 0.0005(4) -.0001(1)
O1 O2- 0.0070(58) 0.0012(5) 0.0081(16) 0.0009(12) -.0048(22) 0.0005(6)
O2 O2- 0.0642(88) 0.0014(5) 0.0095(18) -.0037(16) 0.0123(31) -.0012(8)
#End of TTdata_22123-ICSD