
data_22120-ICSD
_database_code_ICSD 22120
_audit_creation_date 1986-10-16
_chemical_name_systematic 'Iodine(I) bromide'
_chemical_formula_structural 'I Br'
_chemical_formula_sum 'Br1 I1'
_exptl_crystal_density_diffrn 4.49
_cell_length_a 4.903(3)
_cell_length_b 6.993(6)
_cell_length_c 8.931(5)
_cell_angle_alpha 90.
_cell_angle_beta 90.
_cell_angle_gamma 90.
_cell_volume 306.21
_cell_formula_units_Z 4
_symmetry_space_group_name_H-M 'C c m 21'
_symmetry_Int_Tables_number 36
_refine_ls_R_factor_all 0.065
loop_
_symmetry_equiv_pos_site_id
_symmetry_equiv_pos_as_xyz
1 '-x, y, z+1/2'
2 '-x, -y, z+1/2'
3 'x, -y, z'
4 'x, y, z'
5 '-x+1/2, y+1/2, z+1/2'
6 '-x+1/2, -y+1/2, z+1/2'
7 'x+1/2, -y+1/2, z'
8 'x+1/2, y+1/2, z'
loop_
_atom_type_symbol
_atom_type_oxidation_number
I1+ 1
Br1- -1
loop_
_atom_site_label
_atom_site_type_symbol
_atom_site_symmetry_multiplicity
_atom_site_Wyckoff_symbol
_atom_site_fract_x
_atom_site_fract_y
_atom_site_fract_z
_atom_site_B_iso_or_equiv
_atom_site_occupancy
_atom_site_attached_hydrogens
I1 I1+ 4 a 0.4412(6) 0 0.1155(4) . 1. 0
Br1 Br1- 4 a 0.1432(9) 0 -.1146 . 1. 0
loop_
_atom_site_aniso_label
_atom_site_aniso_type_symbol
_atom_site_aniso_beta_11
_atom_site_aniso_beta_22
_atom_site_aniso_beta_33
_atom_site_aniso_beta_12
_atom_site_aniso_beta_13
_atom_site_aniso_beta_23
I1 I1+ 0.0368(6) 0.0138(4) 0.0060(3) 0.0007(7) 0 0
Br1 Br1- 0.0331(20) 0.0204(8) 0.0052(5) 0.0009(7) 0 0
