
#(C) 2017 by FIZ Karlsruhe - Leibniz Institute for Information Infrastructure.  All rights reserved.
data_22135-ICSD
_database_code_ICSD 22135
_audit_creation_date 1986-10-16
_audit_update_record 2011-02-01
_chemical_name_systematic 'Potassium mercury bromide hydrate'
_chemical_formula_structural 'K Hg Br3 (H2 O)'
_chemical_formula_sum 'H2 Br3 Hg1 K1 O1'
_chemical_name_structure_type KHgBr3H2O
_exptl_crystal_density_diffrn 4.42
_publ_section_title

;
The crystal structure of potassium mercuric tribromide monohydrate K Hg Br3 *
H2 0
;
loop_
_citation_id
_citation_journal_full
_citation_year
_citation_journal_volume
_citation_page_first
_citation_page_last
_citation_journal_id_ASTM
primary 'Acta Crystallographica B (24,1968-38,1982)' 1969 25 647 650 ACBCAR
loop_
_publ_author_name
'Padmanabhan, V.M.'
'Yadava, V.S.'
_cell_length_a 4.37(1)
_cell_length_b 16.87(2)
_cell_length_c 10.14(2)
_cell_angle_alpha 90.
_cell_angle_beta 90.
_cell_angle_gamma 90.
_cell_volume 747.54
_cell_formula_units_Z 4
_symmetry_space_group_name_H-M 'C m c 21'
_symmetry_Int_Tables_number 36
_refine_ls_R_factor_all 0.1
loop_
_symmetry_equiv_pos_site_id
_symmetry_equiv_pos_as_xyz
1 'x, -y, z+1/2'
2 '-x, -y, z+1/2'
3 '-x, y, z'
4 'x, y, z'
5 'x+1/2, -y+1/2, z+1/2'
6 '-x+1/2, -y+1/2, z+1/2'
7 '-x+1/2, y+1/2, z'
8 'x+1/2, y+1/2, z'
loop_
_atom_type_symbol
_atom_type_oxidation_number
Hg2+ 2
Br1- -1
O2- -2
K1+ 1
H1+ 1
loop_
_atom_site_label
_atom_site_type_symbol
_atom_site_symmetry_multiplicity
_atom_site_Wyckoff_symbol
_atom_site_fract_x
_atom_site_fract_y
_atom_site_fract_z
_atom_site_B_iso_or_equiv
_atom_site_occupancy
_atom_site_attached_hydrogens
Hg1 Hg2+ 4 a 0 0.001(1) 0.248(1) . 1. 0
Br1 Br1- 4 a 0 0.132(1) 0.099(1) . 1. 0
Br2 Br1- 4 a 0 -.130(1) 0.130(1) . 1. 0
Br3 Br1- 4 a 0 0.498(1) 0.847(1) . 1. 0
O1 O2- 4 a 0 0.297(2) 0.015(2) . 1. 0
K1 K1+ 4 a 0 0.238(2) 0.339(2) . 1. 0
loop_
_atom_site_aniso_label
_atom_site_aniso_type_symbol
_atom_site_aniso_beta_11
_atom_site_aniso_beta_22
_atom_site_aniso_beta_33
_atom_site_aniso_beta_12
_atom_site_aniso_beta_13
_atom_site_aniso_beta_23
Hg1 Hg2+ 0.0017(5) 0.0012(2) 0.0112(11) 0 0 0.0002(3)
Br1 Br1- 0.0312(22) 0.0013(1) 0.0042(4) 0 0 0.0019(4)
Br2 Br1- 0.0082(7) 0.0014(2) 0.0033(2) 0 0 -.0016(5)
Br3 Br1- 0.0138(14) 0.0020(5) 0.0120(21) 0 0 0.0030(8)
O1 O2- 0.0310(21) 0.0056(6) 0.0185(14) 0 0 0.0017(9)
K1 K1+ 0.0213(30) 0.0012(2) 0.0212(20) 0 0 -.0012(3)
#End of TTdata_22135-ICSD