
#(C) 2017 by FIZ Karlsruhe - Leibniz Institute for Information Infrastructure.  All rights reserved.
data_22231-ICSD
_database_code_ICSD 22231
_audit_creation_date 1980-01-01
_audit_update_record 2005-10-01
_chemical_name_systematic 'Calcium nitride (2/1)'
_chemical_formula_structural 'Ca2 N'
_chemical_formula_sum 'Ca2 N1'
_chemical_name_structure_type Sr2N
_exptl_crystal_density_diffrn 2.18
_publ_section_title 'The crystal structure of dicalcium nitride'
loop_
_citation_id
_citation_journal_full
_citation_year
_citation_journal_volume
_citation_page_first
_citation_page_last
_citation_journal_id_ASTM
primary 'Inorganic Chemistry' 1968 7 1757 1761 INOCAJ
loop_
_publ_author_name
'Keve, E.T.'
'Skapski, A.C.'
_cell_length_a 6.603(6)
_cell_length_b 6.603(6)
_cell_length_c 6.603(6)
_cell_angle_alpha 31.98(6)
_cell_angle_beta 31.98(6)
_cell_angle_gamma 31.98(6)
_cell_volume 71.75
_cell_formula_units_Z 1
_symmetry_space_group_name_H-M 'R -3 m R'
_symmetry_Int_Tables_number 166
_refine_ls_R_factor_all 0.13
loop_
_symmetry_equiv_pos_site_id
_symmetry_equiv_pos_as_xyz
1 '-z, -y, -x'
2 '-z, -x, -y'
3 '-x, -z, -y'
4 '-y, -z, -x'
5 '-y, -x, -z'
6 '-x, -y, -z'
7 'z, y, x'
8 'z, x, y'
9 'x, z, y'
10 'y, z, x'
11 'y, x, z'
12 'x, y, z'
loop_
_atom_type_symbol
_atom_type_oxidation_number
Ca0+ 0
N0+ 0
loop_
_atom_site_label
_atom_site_type_symbol
_atom_site_symmetry_multiplicity
_atom_site_Wyckoff_symbol
_atom_site_fract_x
_atom_site_fract_y
_atom_site_fract_z
_atom_site_B_iso_or_equiv
_atom_site_occupancy
_atom_site_attached_hydrogens
Ca1 Ca0+ 2 c 0.2680(3) 0.2680(3) 0.2680(3) -.59(6) 1. 0
N1 N0+ 1 a 0 0 0 0.30(6) 1. 0
#End of TTdata_22231-ICSD