
#(C) 2017 by FIZ Karlsruhe - Leibniz Institute for Information Infrastructure.  All rights reserved.
data_23182-ICSD
_database_code_ICSD 23182
_audit_creation_date 1986-10-15
_audit_update_record 2007-08-01
_chemical_name_systematic 'Tripotassium sodium hexachloroferrate(II)'
_chemical_formula_structural 'K3 Na (Fe Cl6)'
_chemical_formula_sum 'Cl6 Fe1 K3 Na1'
_chemical_name_structure_type K4CdCl6
_chemical_name_mineral Rinneite
_exptl_crystal_density_diffrn 2.39
_publ_section_title

;
La Rinneite: Struttura e relazioni cristallochimiche con la cloromanganocailte
;
loop_
_citation_id
_citation_journal_full
_citation_year
_citation_journal_volume
_citation_page_first
_citation_page_last
_citation_journal_id_ASTM
primary 'Periodico di Mineralogia' 1948 16 199 213 PEMIA7
loop_
_publ_author_name
'Bellanca, A.'
_cell_length_a 8.289
_cell_length_b 8.289
_cell_length_c 8.289
_cell_angle_alpha 91.75
_cell_angle_beta 91.75
_cell_angle_gamma 91.75
_cell_volume 568.7
_cell_formula_units_Z 2
_symmetry_space_group_name_H-M 'R -3 c R'
_symmetry_Int_Tables_number 167
loop_
_symmetry_equiv_pos_site_id
_symmetry_equiv_pos_as_xyz
1 '-x+1/2, -z+1/2, -y+1/2'
2 '-z+1/2, -y+1/2, -x+1/2'
3 '-y+1/2, -x+1/2, -z+1/2'
4 'x+1/2, z+1/2, y+1/2'
5 'z+1/2, y+1/2, x+1/2'
6 'y+1/2, x+1/2, z+1/2'
7 '-z, -x, -y'
8 '-y, -z, -x'
9 '-x, -y, -z'
10 'z, x, y'
11 'y, z, x'
12 'x, y, z'
loop_
_atom_type_symbol
_atom_type_oxidation_number
K1+ 1
Na1+ 1
Fe2+ 2
Cl1- -1
loop_
_atom_site_label
_atom_site_type_symbol
_atom_site_symmetry_multiplicity
_atom_site_Wyckoff_symbol
_atom_site_fract_x
_atom_site_fract_y
_atom_site_fract_z
_atom_site_B_iso_or_equiv
_atom_site_occupancy
_atom_site_attached_hydrogens
K1 K1+ 6 d 0.5 0 0 . 1. 0
Na1 Na1+ 2 b 0 0 0 . 1. 0
Fe1 Fe2+ 2 a 0.25 0.25 0.25 . 1. 0
Cl1 Cl1- 12 f 0.25 0.25 0.965 . 1. 0
#End of TTdata_23182-ICSD