
#(C) 2017 by FIZ Karlsruhe - Leibniz Institute for Information Infrastructure.  All rights reserved.
data_23252-ICSD
_database_code_ICSD 23252
_audit_creation_date 1980-12-31
_chemical_name_systematic 'Hexarubidium hexathiodiindate'
_chemical_formula_structural 'Rb6 In2 S6'
_chemical_formula_sum 'In2 Rb6 S6'
_chemical_name_structure_type K6Fe2O6
_exptl_crystal_density_diffrn 3.29
_publ_section_title

;
Rb6 In2 S6 und Rb4 In2 S5, zwei neue Thioindate mit isolierten und
verknuepften (In2 S6)(6-)Anionen
;
loop_
_citation_id
_citation_journal_full
_citation_year
_citation_journal_volume
_citation_page_first
_citation_page_last
_citation_journal_id_ASTM
primary

;
Zeitschrift fuer Naturforschung, Teil B. Anorganische Chemie, Organische
Chemie (33,1978-41,1986)
; 1980 35 953 958 ZNBAD2
loop_
_publ_author_name
'Deiseroth, H.J.'
_cell_length_a 8.953(2)
_cell_length_b 13.569(2)
_cell_length_c 7.918(2)
_cell_angle_alpha 90.
_cell_angle_beta 101.53(2)
_cell_angle_gamma 90.
_cell_volume 942.49
_cell_formula_units_Z 2
_symmetry_space_group_name_H-M 'C 1 2/m 1'
_symmetry_Int_Tables_number 12
_refine_ls_R_factor_all 0.082
loop_
_symmetry_equiv_pos_site_id
_symmetry_equiv_pos_as_xyz
1 '-x, y, -z'
2 '-x, -y, -z'
3 'x, -y, z'
4 'x, y, z'
5 '-x+1/2, y+1/2, -z'
6 '-x+1/2, -y+1/2, -z'
7 'x+1/2, -y+1/2, z'
8 'x+1/2, y+1/2, z'
loop_
_atom_type_symbol
_atom_type_oxidation_number
Rb1+ 1
In3+ 3
S2- -2
loop_
_atom_site_label
_atom_site_type_symbol
_atom_site_symmetry_multiplicity
_atom_site_Wyckoff_symbol
_atom_site_fract_x
_atom_site_fract_y
_atom_site_fract_z
_atom_site_B_iso_or_equiv
_atom_site_occupancy
_atom_site_attached_hydrogens
Rb1 Rb1+ 4 h 0 0.6789(3) 0.5 . 1. 0
Rb2 Rb1+ 4 i 0.8874(5) 0 0.6465(6) . 1. 0
Rb3 Rb1+ 4 g 0 0.7482(3) 0 . 1. 0
In1 In3+ 4 i 0.3252(3) 0 0.8519(4) . 1. 0
S1 S2- 4 i 0.601(1) 0 0.822(1) . 1. 0
S2 S2- 8 j 0.301(1) 0.353(1) 0.273(1) . 1. 0
loop_
_atom_site_aniso_label
_atom_site_aniso_type_symbol
_atom_site_aniso_B_11
_atom_site_aniso_B_22
_atom_site_aniso_B_33
_atom_site_aniso_B_12
_atom_site_aniso_B_13
_atom_site_aniso_B_23
Rb1 Rb1+ 1.6(2) 3.6(3) 3.3(3) 0 -.6(2) 0
Rb2 Rb1+ 1.2(3) 6.8(4) 3.7(2) 0 0.0(2) 0
Rb3 Rb1+ 2.1(3) 4.4(3) 3.6(2) 0 -.3(2) 0
In1 In3+ 0.3(1) 3.1(2) 2.9(2) 0 -.8(1) 0
S1 S2- 0.8(6) 4.4(8) 1.8(5) 0 -.2(4) 0
S2 S2- 1.2(4) 3.0(5) 3.7(5) 0.5(4) -1.1(3) -.2(4)
#End of TTdata_23252-ICSD