
#(C) 2017 by FIZ Karlsruhe - Leibniz Institute for Information Infrastructure.  All rights reserved.
data_23262-ICSD
_database_code_ICSD 23262
_audit_creation_date 1980-12-31
_chemical_name_systematic 'Tin chloride iodide'
_chemical_formula_structural 'Sn Cl I'
_chemical_formula_sum 'Cl1 I1 Sn1'
_chemical_name_structure_type PbCl2
_exptl_crystal_density_diffrn 4.99
_publ_section_title

;
Etude Structurale d'un Iodochlorure d'Etain(II): Sn Cl I. Comparaison avec les
Halogenures Mixtes de Sn(II) et Pb(II)
;
loop_
_citation_id
_citation_journal_full
_citation_year
_citation_journal_volume
_citation_page_first
_citation_page_last
_citation_journal_id_ASTM
primary 'Acta Crystallographica B (24,1968-38,1982)' 1980 36 1537 1540 ACBCAR
loop_
_publ_author_name
'Vilminot, S.'
'Granier, W.'
'Al Oraibi, Z.A.'
'le Cot, L.'
_cell_length_a 8.420(2)
_cell_length_b 4.425(4)
_cell_length_c 10.040(2)
_cell_angle_alpha 90.
_cell_angle_beta 90.
_cell_angle_gamma 90.
_cell_volume 374.08
_cell_formula_units_Z 4
_symmetry_space_group_name_H-M 'P n m a'
_symmetry_Int_Tables_number 62
_refine_ls_R_factor_all 0.029
loop_
_symmetry_equiv_pos_site_id
_symmetry_equiv_pos_as_xyz
1 'x+1/2, y, -z+1/2'
2 'x, -y+1/2, z'
3 '-x+1/2, y+1/2, z+1/2'
4 '-x, -y, -z'
5 '-x+1/2, -y, z+1/2'
6 '-x, y+1/2, -z'
7 'x+1/2, -y+1/2, -z+1/2'
8 'x, y, z'
loop_
_atom_type_symbol
_atom_type_oxidation_number
Sn2+ 2
I1- -1
Cl1- -1
loop_
_atom_site_label
_atom_site_type_symbol
_atom_site_symmetry_multiplicity
_atom_site_Wyckoff_symbol
_atom_site_fract_x
_atom_site_fract_y
_atom_site_fract_z
_atom_site_B_iso_or_equiv
_atom_site_occupancy
_atom_site_attached_hydrogens
Sn1 Sn2+ 4 c 0.3479(3) 0.25 0.1476(3) . 1. 0
I1 I1- 4 c 0.0122(3) 0.25 -.1697(3) . 1. 0
Cl1 Cl1- 4 c 0.6426(11) 0.25 0.0542(8) . 1. 0
loop_
_atom_site_aniso_label
_atom_site_aniso_type_symbol
_atom_site_aniso_U_11
_atom_site_aniso_U_22
_atom_site_aniso_U_33
_atom_site_aniso_U_12
_atom_site_aniso_U_13
_atom_site_aniso_U_23
Sn1 Sn2+ 0.029(2) 0.027(2) 0.046(2) 0 -.002(2) 0
I1 I1- 0.028(2) 0.010(1) 0.026(1) 0 0.003(1) 0
Cl1 Cl1- 0.015(4) 0.010(4) 0.018(4) 0 0.000(4) 0
#End of TTdata_23262-ICSD