
#(C) 2017 by FIZ Karlsruhe - Leibniz Institute for Information Infrastructure.  All rights reserved.
data_23272-ICSD
_database_code_ICSD 23272
_audit_creation_date 1980-12-31
_chemical_name_systematic 'Indium molybdenum selenide (1/6/8)'
_chemical_formula_structural 'In Mo6 Se8'
_chemical_formula_sum 'In1 Mo6 Se8'
_chemical_name_structure_type Chevrel-PbMo6S8
_exptl_crystal_density_diffrn 7.04
_cell_measurement_temperature 298.
_publ_section_title
'New Indium Molybdenum Selenides: In Mo6 Se8 and In2 Mo15 Se19'
loop_
_citation_id
_citation_journal_full
_citation_year
_citation_journal_volume
_citation_page_first
_citation_page_last
_citation_journal_id_ASTM
primary 'Acta Crystallographica B (24,1968-38,1982)' 1980 36 2123 2126 ACBCAR
loop_
_publ_author_name
'Lipka, A.'
'Yvon, K.'
_cell_length_a 9.55(1)
_cell_length_b 9.55(1)
_cell_length_c 11.85(1)
_cell_angle_alpha 90.
_cell_angle_beta 90.
_cell_angle_gamma 120.
_cell_volume 935.96
_cell_formula_units_Z 3
_symmetry_space_group_name_H-M 'R -3 H'
_symmetry_Int_Tables_number 148
_refine_ls_R_factor_all 0.1
loop_
_symmetry_equiv_pos_site_id
_symmetry_equiv_pos_as_xyz
1 'x-y, x, -z'
2 'y, -x+y, -z'
3 '-x, -y, -z'
4 '-x+y, -x, z'
5 '-y, x-y, z'
6 'x, y, z'
7 'x-y+2/3, x+1/3, -z+1/3'
8 'y+2/3, -x+y+1/3, -z+1/3'
9 '-x+2/3, -y+1/3, -z+1/3'
10 '-x+y+2/3, -x+1/3, z+1/3'
11 '-y+2/3, x-y+1/3, z+1/3'
12 'x+2/3, y+1/3, z+1/3'
13 'x-y+1/3, x+2/3, -z+2/3'
14 'y+1/3, -x+y+2/3, -z+2/3'
15 '-x+1/3, -y+2/3, -z+2/3'
16 '-x+y+1/3, -x+2/3, z+2/3'
17 '-y+1/3, x-y+2/3, z+2/3'
18 'x+1/3, y+2/3, z+2/3'
loop_
_atom_type_symbol
_atom_type_oxidation_number
In0+ 0
Mo0+ 0
Se0+ 0
loop_
_atom_site_label
_atom_site_type_symbol
_atom_site_symmetry_multiplicity
_atom_site_Wyckoff_symbol
_atom_site_fract_x
_atom_site_fract_y
_atom_site_fract_z
_atom_site_B_iso_or_equiv
_atom_site_occupancy
_atom_site_attached_hydrogens
In1 In0+ 3 a 0 0 0 0.042(2) 1. 0
Mo1 Mo0+ 18 f 0.0146(3) 0.1695(3) 0.4052(3) 0.007(1) 1. 0
Se1 Se0+ 6 c 0 0 0.2389(6) 0.015(1) 1. 0
Se2 Se0+ 18 f 0.3295(4) 0.2962(4) 0.4163(3) 0.010(1) 1. 0
#End of TTdata_23272-ICSD