
data_23327-ICSD
_database_code_ICSD 23327
_audit_creation_date 1980-12-31
_chemical_name_systematic 'Hafnium oxide sulfide'
_chemical_formula_structural 'Hf O S'
_chemical_formula_sum 'Hf1 O1 S1'
_chemical_name_structure_type ZrOS
_exptl_crystal_density_diffrn 8.2
_cell_length_a 5.6824(6)
_cell_length_b 5.6824(6)
_cell_length_c 5.6824(6)
_cell_angle_alpha 90.
_cell_angle_beta 90.
_cell_angle_gamma 90.
_cell_volume 183.48
_cell_formula_units_Z 4
_symmetry_space_group_name_H-M 'P 21 3'
_symmetry_Int_Tables_number 198
_refine_ls_R_factor_all 0.076
loop_
_symmetry_equiv_pos_site_id
_symmetry_equiv_pos_as_xyz
1 '-z+1/2, -x, y+1/2'
2 '-y+1/2, -z, x+1/2'
3 '-x+1/2, -y, z+1/2'
4 '-z, x+1/2, -y+1/2'
5 '-y, z+1/2, -x+1/2'
6 '-x, y+1/2, -z+1/2'
7 'z+1/2, -x+1/2, -y'
8 'y+1/2, -z+1/2, -x'
9 'x+1/2, -y+1/2, -z'
10 'z, x, y'
11 'y, z, x'
12 'x, y, z'
loop_
_atom_type_symbol
_atom_type_oxidation_number
Hf4+ 4
O2- -2
S2- -2
loop_
_atom_site_label
_atom_site_type_symbol
_atom_site_symmetry_multiplicity
_atom_site_Wyckoff_symbol
_atom_site_fract_x
_atom_site_fract_y
_atom_site_fract_z
_atom_site_B_iso_or_equiv
_atom_site_occupancy
_atom_site_attached_hydrogens
Hf1 Hf4+ 4 a 0.3190(2) 0.3190(2) 0.3190(2) . 1. 0
O1 O2- 4 a 0.9042(39) 0.9042(39) 0.9042(39) . 1. 0
S1 S2- 4 a 0.5825(14) 0.5825(14) 0.5825(14) . 1. 0
