
#(C) 2017 by FIZ Karlsruhe - Leibniz Institute for Information Infrastructure.  All rights reserved.
data_23361-ICSD
_database_code_ICSD 23361
_audit_creation_date 1984-11-06
_audit_update_record 1984-12-21
_chemical_name_systematic 'Disodium trisulfide ammonia'
_chemical_formula_structural 'Na2 S3 (N H3)'
_chemical_formula_sum 'H3 N1 Na2 S3'
_exptl_crystal_density_diffrn 1.86
_publ_section_title 'Zur Kenntnis der Verbindung Na2 S3'
loop_
_citation_id
_citation_journal_full
_citation_year
_citation_journal_volume
_citation_page_first
_citation_page_last
_citation_journal_id_ASTM
primary 'Zeitschrift fuer Anorganische und Allgemeine Chemie (1950) (DE)' 1980
467 149 157 ZAACAB
loop_
_publ_author_name
'Boettcher, P.'
_cell_length_a 9.257(5)
_cell_length_b 7.056(2)
_cell_length_c 8.919(3)
_cell_angle_alpha 90.
_cell_angle_beta 102.71(4)
_cell_angle_gamma 90.
_cell_volume 568.29
_cell_formula_units_Z 4
_symmetry_space_group_name_H-M 'C 1 2/m 1'
_symmetry_Int_Tables_number 12
_refine_ls_R_factor_all 0.068
loop_
_symmetry_equiv_pos_site_id
_symmetry_equiv_pos_as_xyz
1 '-x, y, -z'
2 '-x, -y, -z'
3 'x, -y, z'
4 'x, y, z'
5 '-x+1/2, y+1/2, -z'
6 '-x+1/2, -y+1/2, -z'
7 'x+1/2, -y+1/2, z'
8 'x+1/2, y+1/2, z'
loop_
_atom_type_symbol
_atom_type_oxidation_number
Na1+ 1
S0+ -0.667
N3- -3
H1+ 1
loop_
_atom_site_label
_atom_site_type_symbol
_atom_site_symmetry_multiplicity
_atom_site_Wyckoff_symbol
_atom_site_fract_x
_atom_site_fract_y
_atom_site_fract_z
_atom_site_B_iso_or_equiv
_atom_site_occupancy
_atom_site_attached_hydrogens
Na1 Na1+ 2 a 0 0 0 . 1. 0
Na2 Na1+ 2 d 0 0.5 0.5 . 1. 0
Na3 Na1+ 4 i 0.1888(9) 0 0.7101(9) . 1. 0
S1 S0+ 4 i 0.1748(5) 0 0.3839(6) . 1. 0
S2 S0+ 8 j 0.0653(4) 0.2360(5) 0.2744(4) . 1. 0
N1 N3- 4 i 0.280(2) 0 0.019(2) . 1. 0
loop_
_atom_site_aniso_label
_atom_site_aniso_type_symbol
_atom_site_aniso_U_11
_atom_site_aniso_U_22
_atom_site_aniso_U_33
_atom_site_aniso_U_12
_atom_site_aniso_U_13
_atom_site_aniso_U_23
Na1 Na1+ 0.0421(68) 0.0275(64) 0.0218(56) 0 0.0089(53) 0
Na2 Na1+ 0.0251(57) 0.0293(64) 0.0289(60) 0 0.0007(49) 0
Na3 Na1+ 0.0291(42) 0.0374(50) 0.0374(50) 0 0.0143(38) 0
S1 S0+ 0.0189(26) 0.0250(31) 0.0205(25) 0 0.0052(21) 0
S2 S0+ 0.0223(16) 0.0186(18) 0.0244(15) -.0017(16) 0.0025(12) -.0010(16)
N1 N3- 0.034(13) 0.050(12) 0.023(10) 0 0.0148(99) 0
#End of TTdata_23361-ICSD