
#(C) 2017 by FIZ Karlsruhe - Leibniz Institute for Information Infrastructure.  All rights reserved.
data_23402-ICSD
_database_code_ICSD 23402
_audit_creation_date 1980-01-01
_audit_update_record 2011-08-01
_chemical_name_systematic 'Zirconium oxide (3/1)'
_chemical_formula_structural 'Zr3 O'
_chemical_formula_sum 'O1 Zr3'
_exptl_crystal_density_diffrn 6.91
_publ_section_title 'Description d'une surstructure Zr3 O1'
loop_
_citation_id
_citation_journal_full
_citation_year
_citation_journal_volume
_citation_page_first
_citation_page_last
_citation_journal_id_ASTM
primary

;
Comptes Rendus Hebdomadaires des Seances de l'Academie des Sciences, Serie C,
Sciences Chimiques (1966-)
; 1969 268 501 504 CHDCAQ
loop_
_publ_author_name
'Dubertret, A.'
'Lehr, P.'
_cell_length_a 5.56295
_cell_length_b 5.56295
_cell_length_c 31.185
_cell_angle_alpha 90.
_cell_angle_beta 90.
_cell_angle_gamma 120.
_cell_volume 835.77
_cell_formula_units_Z 12
_symmetry_space_group_name_H-M 'R 3 2 H'
_symmetry_Int_Tables_number 155
loop_
_symmetry_equiv_pos_site_id
_symmetry_equiv_pos_as_xyz
1 '-x, -x+y, -z'
2 'x-y, -y, -z'
3 'y, x, -z'
4 '-x+y, -x, z'
5 '-y, x-y, z'
6 'x, y, z'
7 '-x+2/3, -x+y+1/3, -z+1/3'
8 'x-y+2/3, -y+1/3, -z+1/3'
9 'y+2/3, x+1/3, -z+1/3'
10 '-x+y+2/3, -x+1/3, z+1/3'
11 '-y+2/3, x-y+1/3, z+1/3'
12 'x+2/3, y+1/3, z+1/3'
13 '-x+1/3, -x+y+2/3, -z+2/3'
14 'x-y+1/3, -y+2/3, -z+2/3'
15 'y+1/3, x+2/3, -z+2/3'
16 '-x+y+1/3, -x+2/3, z+2/3'
17 '-y+1/3, x-y+2/3, z+2/3'
18 'x+1/3, y+2/3, z+2/3'
loop_
_atom_type_symbol
_atom_type_oxidation_number
Zr0+ 0
O0+ 0
loop_
_atom_site_label
_atom_site_type_symbol
_atom_site_symmetry_multiplicity
_atom_site_Wyckoff_symbol
_atom_site_fract_x
_atom_site_fract_y
_atom_site_fract_z
_atom_site_B_iso_or_equiv
_atom_site_occupancy
_atom_site_attached_hydrogens
Zr1 Zr0+ 9 d 0.3333 0 0 . 1. 0
Zr2 Zr0+ 9 e 0.3333 0 0.5 . 1. 0
Zr3 Zr0+ 18 f 0.6667 0 0.0833 . 1. 0
O1 O0+ 6 c 0 0 0.125 . 1. 0
O2 O0+ 6 c 0 0 0.2917 . 1. 0
#End of TTdata_23402-ICSD