
#(C) 2017 by FIZ Karlsruhe - Leibniz Institute for Information Infrastructure.  All rights reserved.
data_23445-ICSD
_database_code_ICSD 23445
_audit_creation_date 1980-01-01
_chemical_name_systematic 'Potassium tetraamidoaluminate - alpha'
_chemical_formula_structural 'K Al (N H2)4'
_chemical_formula_sum 'H8 Al1 K1 N4'
_exptl_crystal_density_diffrn 1.47
_publ_section_title

;
Structure de l'amidoaluminate de potassium forme basse temperature K Al (N
H2)4
;
loop_
_citation_id
_citation_journal_full
_citation_year
_citation_journal_volume
_citation_page_first
_citation_page_last
_citation_journal_id_ASTM
primary

;
Comptes Rendus Hebdomadaires des Seances de l'Academie des Sciences, Serie C,
Sciences Chimiques (1966-)
; 1972 274 266 268 CHDCAQ
loop_
_publ_author_name
'Brec, R.'
'Palvadeau, P.'
'Herpin, P.'
_cell_length_a 10.00(1)
_cell_length_b 5.80(1)
_cell_length_c 10.14(1)
_cell_angle_alpha 90.
_cell_angle_beta 90.
_cell_angle_gamma 90.
_cell_volume 588.12
_cell_formula_units_Z 4
_symmetry_space_group_name_H-M 'C 2 2 21'
_symmetry_Int_Tables_number 20
_refine_ls_R_factor_all 0.06
loop_
_symmetry_equiv_pos_site_id
_symmetry_equiv_pos_as_xyz
1 '-x, y, -z+1/2'
2 '-x, -y, z+1/2'
3 'x, -y, -z'
4 'x, y, z'
5 '-x+1/2, y+1/2, -z+1/2'
6 '-x+1/2, -y+1/2, z+1/2'
7 'x+1/2, -y+1/2, -z'
8 'x+1/2, y+1/2, z'
loop_
_atom_type_symbol
_atom_type_oxidation_number
K1+ 1
Al3+ 3
N3- -3
H1+ 1
loop_
_atom_site_label
_atom_site_type_symbol
_atom_site_symmetry_multiplicity
_atom_site_Wyckoff_symbol
_atom_site_fract_x
_atom_site_fract_y
_atom_site_fract_z
_atom_site_B_iso_or_equiv
_atom_site_occupancy
_atom_site_attached_hydrogens
K1 K1+ 4 a 0.2399(3) 0 0 . 1. 0
Al1 Al3+ 4 b 0 0.4437(7) 0.25 . 1. 0
N1 N3- 8 c -.011(1) 0.248(1) 0.100(2) . 1. 0
N2 N3- 8 c 0.360(1) 0.141(1) 0.278(1) . 1. 0
#End of TTdata_23445-ICSD