
#(C) 2017 by FIZ Karlsruhe - Leibniz Institute for Information Infrastructure.  All rights reserved.
data_23478-ICSD
_database_code_ICSD 23478
_audit_creation_date 1980-01-01
_chemical_name_systematic 'Thallium oxide (4/3)'
_chemical_formula_structural 'Tl4 O3'
_chemical_formula_sum 'O3 Tl4'
_exptl_crystal_density_diffrn 10.68
_publ_section_title 'Structure cristalline de l'oxyde de thallium Tl4 O3'
loop_
_citation_id
_citation_journal_full
_citation_year
_citation_journal_volume
_citation_page_first
_citation_page_last
_citation_journal_id_ASTM
primary

;
Comptes Rendus Hebdomadaires des Seances de l'Academie des Sciences, Serie C,
Sciences Chimiques (1966-)
; 1973 277 863 865 CHDCAQ
loop_
_publ_author_name
'Marchand, R.'
'Tournoux, M.'
_cell_length_a 10.88(1)
_cell_length_b 3.45(1)
_cell_length_c 7.61(1)
_cell_angle_alpha 90.
_cell_angle_beta 109.58(25)
_cell_angle_gamma 90.
_cell_volume 269.13
_cell_formula_units_Z 2
_symmetry_space_group_name_H-M 'P 1 21/m 1'
_symmetry_Int_Tables_number 11
_refine_ls_R_factor_all 0.077
loop_
_symmetry_equiv_pos_site_id
_symmetry_equiv_pos_as_xyz
1 'x, -y+1/2, z'
2 '-x, -y, -z'
3 '-x, y+1/2, -z'
4 'x, y, z'
loop_
_atom_type_symbol
_atom_type_oxidation_number
Tl1+ 1
Tl3+ 3
O2- -2
loop_
_atom_site_label
_atom_site_type_symbol
_atom_site_symmetry_multiplicity
_atom_site_Wyckoff_symbol
_atom_site_fract_x
_atom_site_fract_y
_atom_site_fract_z
_atom_site_B_iso_or_equiv
_atom_site_occupancy
_atom_site_attached_hydrogens
Tl1 Tl1+ 2 e 0.1327(4) 0.25 0.2262(6) . 1. 0
Tl2 Tl1+ 2 e 0.1462(4) 0.25 0.6941(6) . 1. 0
Tl3 Tl1+ 2 e 0.6335(4) 0.25 0.9301(7) . 1. 0
Tl4 Tl3+ 2 e 0.6086(4) 0.25 0.4256(7) . 1. 0
O1 O2- 2 e 0.3842(54) 0.25 0.3557(66) 1.5 1. 0
O2 O2- 2 e 0.8231(41) 0.25 0.5293(54) 0.7 1. 0
O3 O2- 2 e 0.4033(35) 0.25 0.7619(54) 0.3 1. 0
loop_
_atom_site_aniso_label
_atom_site_aniso_type_symbol
_atom_site_aniso_beta_11
_atom_site_aniso_beta_22
_atom_site_aniso_beta_33
_atom_site_aniso_beta_12
_atom_site_aniso_beta_13
_atom_site_aniso_beta_23
Tl1 Tl1+ 0.0029(4) 0.102(51) 0.0052(7) 0 -.0002(5) 0
Tl2 Tl1+ 0.0019(3) 0.113(50) 0.0028(7) 0 0.0006(4) 0
Tl3 Tl1+ 0.0015(3) 0.119(50) 0.0060(9) 0 0.0006(5) 0
Tl4 Tl3+ 0.0003(2) 0.105(51) 0.0054(9) 0 0.0010(4) 0
#End of TTdata_23478-ICSD