
#(C) 2017 by FIZ Karlsruhe - Leibniz Institute for Information Infrastructure.  All rights reserved.
data_23628-ICSD
_database_code_ICSD 23628
_audit_creation_date 1980-01-01
_audit_update_record 2017-08-01
_chemical_name_systematic 'Strontium phosphide (1/3)'
_chemical_formula_structural 'Sr P3'
_chemical_formula_sum 'P3 Sr1'
_chemical_name_structure_type SrP3
_exptl_crystal_density_diffrn 3.41
_publ_section_title 'Die Polyphosphide Sr P3 und Ba3 P14'
loop_
_citation_id
_citation_journal_full
_citation_year
_citation_journal_volume
_citation_page_first
_citation_page_last
_citation_journal_id_ASTM
primary Naturwissenschaften 1973 60 429 429 NATWAY
loop_
_publ_author_name
'Dahlmann, W.'
'Schnering, H.G. von'
_cell_length_a 11.432(2)
_cell_length_b 7.387(2)
_cell_length_c 8.561(2)
_cell_angle_alpha 90.
_cell_angle_beta 103.45(2)
_cell_angle_gamma 90.
_cell_volume 703.13
_cell_formula_units_Z 8
_symmetry_space_group_name_H-M 'C 1 2/m 1'
_symmetry_Int_Tables_number 12
_refine_ls_R_factor_all 0.099
loop_
_symmetry_equiv_pos_site_id
_symmetry_equiv_pos_as_xyz
1 '-x, y, -z'
2 '-x, -y, -z'
3 'x, -y, z'
4 'x, y, z'
5 '-x+1/2, y+1/2, -z'
6 '-x+1/2, -y+1/2, -z'
7 'x+1/2, -y+1/2, z'
8 'x+1/2, y+1/2, z'
loop_
_atom_type_symbol
_atom_type_oxidation_number
Sr2+ 2
P0+ -0.667
loop_
_atom_site_label
_atom_site_type_symbol
_atom_site_symmetry_multiplicity
_atom_site_Wyckoff_symbol
_atom_site_fract_x
_atom_site_fract_y
_atom_site_fract_z
_atom_site_B_iso_or_equiv
_atom_site_occupancy
_atom_site_attached_hydrogens
Sr1 Sr2+ 4 i 0.2921 0 0.2243 . 1. 0
Sr2 Sr2+ 4 i 0.9573 0 0.2591 . 1. 0
P1 P0+ 4 i 0.6758 0 0.1645 . 1. 0
P2 P0+ 4 i 0.5837 0 0.3672 . 1. 0
P3 P0+ 8 j 0.0985 0.2622 0.0259 . 1. 0
P4 P0+ 8 j 0.1485 0.2457 0.4879 . 1. 0
#End of TTdata_23628-ICSD