
#(C) 2017 by FIZ Karlsruhe - Leibniz Institute for Information Infrastructure.  All rights reserved.
data_236572-ICSD
_database_code_ICSD 236572
_audit_creation_date 2014-08-01
_chemical_name_systematic 'Copper vanadium antimonide (3/2/4)'
_chemical_formula_structural 'Cu3 V2 Sb4'
_chemical_formula_sum 'Cu3 Sb4 V2'
_exptl_crystal_density_diffrn 7.76
_publ_section_title

;
The V-Cu-Sb ternary system at 773 K: Crystal, band structure, and physical
properties
;
loop_
_citation_id
_citation_journal_full
_citation_year
_citation_journal_volume
_citation_page_first
_citation_page_last
_citation_journal_id_ASTM
primary 'Journal of Alloys and Compounds' 2014 589 200 206 JALCEU
loop_
_publ_author_name
'Konyk, M.'
'Romaka, L.'
'Demchenko, P.'
'Romaka, V.V.'
'Stadnyk, Yu.'
'Horyn, A.'
_cell_length_a 8.52905(5)
_cell_length_b 8.52905(5)
_cell_length_c 5.29456(4)
_cell_angle_alpha 90.
_cell_angle_beta 90.
_cell_angle_gamma 120.
_cell_volume 333.55
_cell_formula_units_Z 2
_symmetry_space_group_name_H-M 'P 63/m m c'
_symmetry_Int_Tables_number 194
_refine_ls_R_factor_all 0.0302
loop_
_symmetry_equiv_pos_site_id
_symmetry_equiv_pos_as_xyz
1 'x, x-y, -z+1/2'
2 '-x+y, y, -z+1/2'
3 '-y, -x, -z+1/2'
4 '-x+y, -x, -z+1/2'
5 '-y, x-y, -z+1/2'
6 'x, y, -z+1/2'
7 '-x, -x+y, z+1/2'
8 'x-y, -y, z+1/2'
9 'y, x, z+1/2'
10 'x-y, x, z+1/2'
11 'y, -x+y, z+1/2'
12 '-x, -y, z+1/2'
13 '-x, -x+y, -z'
14 'x-y, -y, -z'
15 'y, x, -z'
16 'x-y, x, -z'
17 'y, -x+y, -z'
18 '-x, -y, -z'
19 'x, x-y, z'
20 '-x+y, y, z'
21 '-y, -x, z'
22 '-x+y, -x, z'
23 '-y, x-y, z'
24 'x, y, z'
loop_
_atom_type_symbol
_atom_type_oxidation_number
V0+ 0
Cu0+ 0
Sb0+ 0
loop_
_atom_site_label
_atom_site_type_symbol
_atom_site_symmetry_multiplicity
_atom_site_Wyckoff_symbol
_atom_site_fract_x
_atom_site_fract_y
_atom_site_fract_z
_atom_site_B_iso_or_equiv
_atom_site_occupancy
_atom_site_attached_hydrogens
V1 V0+ 2 c 0.3333 0.6667 0.25 0.46(8) 1. 0
V2 V0+ 2 a 0 0 0 0.66(9) 1. 0
Cu1 Cu0+ 6 g 0.5 0 0 1.18(4) 1. 0
Sb1 Sb0+ 6 h 0.15576(10) 0.31152(20) 0.25 0.61(2) 1. 0
Sb2 Sb0+ 2 d 0.3333 0.6667 0.75 0.45(4) 1. 0
#End of TTdata_236572-ICSD