
#(C) 2017 by FIZ Karlsruhe - Leibniz Institute for Information Infrastructure.  All rights reserved.
data_23672-ICSD
_database_code_ICSD 23672
_audit_creation_date 1980-01-01
_audit_update_record 2007-08-01
_chemical_name_systematic 'Germanium nitride - beta'
_chemical_formula_structural 'Ge3 N4'
_chemical_formula_sum 'Ge3 N4'
_chemical_name_structure_type Nb3Te4
_exptl_crystal_density_diffrn 5.29
_publ_section_title
'The crystal structures of alpha and beta silicon and germanium nitrides'
loop_
_citation_id
_citation_journal_full
_citation_year
_citation_journal_volume
_citation_page_first
_citation_page_last
_citation_journal_id_ASTM
primary 'Special Ceramics' 1972 5 385 395 SCERAD
loop_
_publ_author_name
'Wild, S.'
'Grieveson, P.'
'Jack, K.H.'
_cell_length_a 8.0276(5)
_cell_length_b 8.0276(5)
_cell_length_c 3.0774(2)
_cell_angle_alpha 90.
_cell_angle_beta 90.
_cell_angle_gamma 120.
_cell_volume 171.75
_cell_formula_units_Z 2
_symmetry_space_group_name_H-M 'P 63/m'
_symmetry_Int_Tables_number 176
_refine_ls_R_factor_all 0.022
loop_
_symmetry_equiv_pos_site_id
_symmetry_equiv_pos_as_xyz
1 '-x+y, -x, -z+1/2'
2 '-y, x-y, -z+1/2'
3 'x, y, -z+1/2'
4 'x-y, x, -z'
5 'y, -x+y, -z'
6 '-x, -y, -z'
7 'x-y, x, z+1/2'
8 'y, -x+y, z+1/2'
9 '-x, -y, z+1/2'
10 '-x+y, -x, z'
11 '-y, x-y, z'
12 'x, y, z'
loop_
_atom_type_symbol
_atom_type_oxidation_number
Ge4+ 4
N3- -3
loop_
_atom_site_label
_atom_site_type_symbol
_atom_site_symmetry_multiplicity
_atom_site_Wyckoff_symbol
_atom_site_fract_x
_atom_site_fract_y
_atom_site_fract_z
_atom_site_B_iso_or_equiv
_atom_site_occupancy
_atom_site_attached_hydrogens
Ge1 Ge4+ 6 h 0.1712(2) -.2342(2) 0.25 0.002(9) 1. 0
N1 N3- 6 h 0.3335(12) 0.0295(14) 0.25 0.013(5) 1. 0
N2 N3- 2 c 0.3333 0.6667 0.25 0.001(7) 1. 0
#End of TTdata_23672-ICSD