
#(C) 2017 by FIZ Karlsruhe - Leibniz Institute for Information Infrastructure.  All rights reserved.
data_237338-ICSD
_database_code_ICSD 237338
_audit_creation_date 2015-02-01
_chemical_name_systematic 'Manganese chromate'
_chemical_formula_structural 'Mn Cr O4'
_chemical_formula_sum 'Cr1 Mn1 O4'
_chemical_name_structure_type CrVO4
_exptl_crystal_density_diffrn 3.68
_cell_measurement_temperature 298.
_publ_section_title

;
Synthesis and characterization of Mn Cr O4, a new mixed-valence
antiferromagnet
;
loop_
_citation_id
_citation_journal_full
_citation_year
_citation_journal_volume
_citation_page_first
_citation_page_last
_citation_journal_id_ASTM
primary 'Inorganic Chemistry' 2013 52 11850 11858 INOCAJ
loop_
_publ_author_name
'Nalbandyan, Vladimir B.'
'Zvereva, Elena A.'
'Yalovega, Galina E.'
'Shukaev, Igor L.'
'Ryzhakova, Anastasiya P.'
'Guda, Alexander A.'
'Stroppa, Alessandro'
'Picozzi, Silvia'
'Vasiliev, Alexander N.'
'Whangbo, Myung-Hwan'
_cell_length_a 5.58762(16)
_cell_length_b 8.45679(27)
_cell_length_c 6.52132(23)
_cell_angle_alpha 90.
_cell_angle_beta 90.
_cell_angle_gamma 90.
_cell_volume 308.15
_cell_formula_units_Z 4
_symmetry_space_group_name_H-M 'C m c m'
_symmetry_Int_Tables_number 63
_refine_ls_R_factor_all 0.0972
loop_
_symmetry_equiv_pos_site_id
_symmetry_equiv_pos_as_xyz
1 '-x, y, -z+1/2'
2 '-x, -y, z+1/2'
3 '-x, y, z'
4 '-x, -y, -z'
5 'x, -y, z+1/2'
6 'x, y, -z+1/2'
7 'x, -y, -z'
8 'x, y, z'
9 '-x+1/2, y+1/2, -z+1/2'
10 '-x+1/2, -y+1/2, z+1/2'
11 '-x+1/2, y+1/2, z'
12 '-x+1/2, -y+1/2, -z'
13 'x+1/2, -y+1/2, z+1/2'
14 'x+1/2, y+1/2, -z+1/2'
15 'x+1/2, -y+1/2, -z'
16 'x+1/2, y+1/2, z'
loop_
_atom_type_symbol
_atom_type_oxidation_number
Mn2+ 2
Cr6+ 6
O2- -2
loop_
_atom_site_label
_atom_site_type_symbol
_atom_site_symmetry_multiplicity
_atom_site_Wyckoff_symbol
_atom_site_fract_x
_atom_site_fract_y
_atom_site_fract_z
_atom_site_B_iso_or_equiv
_atom_site_occupancy
_atom_site_attached_hydrogens
Mn1 Mn2+ 4 a 0. 0. 0. 0.02699 1. 0
Cr1 Cr6+ 4 c 0. 0.36038(31) 0.25 0.02427 1. 0
O1 O2- 8 f 0. 0.2474(6) 0.0414(8) 0.0183(19) 1. 0
O2 O2- 8 g 0.2463(8) 0.4725(6) 0.25 0.0162(18) 1. 0
loop_
_atom_site_aniso_label
_atom_site_aniso_type_symbol
_atom_site_aniso_U_11
_atom_site_aniso_U_22
_atom_site_aniso_U_33
_atom_site_aniso_U_12
_atom_site_aniso_U_13
_atom_site_aniso_U_23
Mn1 Mn2+ 0.0198(14) 0.0427(18) 0.0184(16) 0. 0. -0.0021(18)
Cr1 Cr6+ 0.0242(14) 0.0221(16) 0.0266(17) 0. 0. 0.
#End of TTdata_237338-ICSD