
#(C) 2017 by FIZ Karlsruhe - Leibniz Institute for Information Infrastructure.  All rights reserved.
data_237302-ICSD
_database_code_ICSD 237302
_audit_creation_date 2015-02-01
_chemical_name_systematic 'Magnesium nickel germanide (1/1/1)'
_chemical_formula_structural 'Mg Ni Ge'
_chemical_formula_sum 'Ge1 Mg1 Ni1'
_chemical_name_structure_type TiNiSi-MgSrSi
_exptl_crystal_density_diffrn 5.65
_cell_measurement_temperature 293.
_publ_section_title

;
From one to three dimensions: Corrugated.infin.1[Ni Ge] ribbons as a building
block in alkaline earth metal Ae/Ni/Ge phases with crystal structure and
chemical bonding in Ae Ni Ge (Ae = Mg, Sr, Ba)
;
loop_
_citation_id
_citation_journal_full
_citation_year
_citation_journal_volume
_citation_page_first
_citation_page_last
_citation_journal_id_ASTM
primary 'Inorganic Chemistry' 2013 52 6905 6915 INOCAJ
loop_
_publ_author_name
'Hlukhyy, Viktor'
'Siggelkow, Lisa'
'Faessler, Thomas F.'
_cell_length_a 6.47418(15)
_cell_length_b 4.07161(9)
_cell_length_c 6.94261(17)
_cell_angle_alpha 90.
_cell_angle_beta 90.
_cell_angle_gamma 90.
_cell_volume 183.
_cell_formula_units_Z 4
_symmetry_space_group_name_H-M 'P n m a'
_symmetry_Int_Tables_number 62
_refine_ls_R_factor_all 0.0148
loop_
_symmetry_equiv_pos_site_id
_symmetry_equiv_pos_as_xyz
1 'x+1/2, y, -z+1/2'
2 'x, -y+1/2, z'
3 '-x+1/2, y+1/2, z+1/2'
4 '-x, -y, -z'
5 '-x+1/2, -y, z+1/2'
6 '-x, y+1/2, -z'
7 'x+1/2, -y+1/2, -z+1/2'
8 'x, y, z'
loop_
_atom_type_symbol
_atom_type_oxidation_number
Mg0+ 0
Ni0+ 0
Ge0+ 0
loop_
_atom_site_label
_atom_site_type_symbol
_atom_site_symmetry_multiplicity
_atom_site_Wyckoff_symbol
_atom_site_fract_x
_atom_site_fract_y
_atom_site_fract_z
_atom_site_B_iso_or_equiv
_atom_site_occupancy
_atom_site_attached_hydrogens
Mg1 Mg0+ 4 c 0.00194(16) 0.25 0.68763(15) 0.0116(2) 1 0
Ni1 Ni0+ 4 c 0.34605(6) 0.25 0.44589(5) 0.01040(13) 1 0
Ge1 Ge0+ 4 c 0.21043(5) 0.25 0.11862(4) 0.00945(12) 1 0
loop_
_atom_site_aniso_label
_atom_site_aniso_type_symbol
_atom_site_aniso_U_11
_atom_site_aniso_U_22
_atom_site_aniso_U_33
_atom_site_aniso_U_12
_atom_site_aniso_U_13
_atom_site_aniso_U_23
Mg1 Mg0+ 0.0108(5) 0.0120(5) 0.0119(5) 0. 0.0024(4) 0.
Ni1 Ni0+ 0.0105(2) 0.01096(19) 0.0097(2) 0. 0.00135(13) 0.
Ge1 Ge0+ 0.00902(17) 0.00802(16) 0.01130(18) 0. -0.00068(10) 0.
#End of TTdata_237302-ICSD