
#(C) 2017 by FIZ Karlsruhe - Leibniz Institute for Information Infrastructure.  All rights reserved.
data_237469-ICSD
_database_code_ICSD 237469
_audit_creation_date 2015-02-01
_chemical_name_systematic 'Gold gallium sodium (4/2/1)'
_chemical_formula_structural 'Au4 Ga2 Na'
_chemical_formula_sum 'Au4 Ga2 Na1'
_exptl_crystal_density_diffrn 12.49
_cell_measurement_temperature 293.
_publ_section_title

;
Polyclusters and substitution effects in the Na-Au-Ga system: Remarkable
sodium bonding characteristics in polar intermetallics
;
loop_
_citation_id
_citation_journal_full
_citation_year
_citation_journal_volume
_citation_page_first
_citation_page_last
_citation_journal_id_ASTM
primary 'Inorganic Chemistry' 2013 52 12502 12510 INOCAJ
loop_
_publ_author_name
'Smetana, Volodymyr'
'Miller, Gordon J.'
'Corbett, John D.'
_cell_length_a 8.2927(17)
_cell_length_b 7.3610(15)
_cell_length_c 9.2201(18)
_cell_angle_alpha 90.
_cell_angle_beta 116.15(3)
_cell_angle_gamma 90.
_cell_volume 505.21
_cell_formula_units_Z 4
_symmetry_space_group_name_H-M 'P 1 21/c 1'
_symmetry_Int_Tables_number 14
_refine_ls_R_factor_all 0.0281
loop_
_symmetry_equiv_pos_site_id
_symmetry_equiv_pos_as_xyz
1 'x, -y+1/2, z+1/2'
2 '-x, -y, -z'
3 '-x, y+1/2, -z+1/2'
4 'x, y, z'
loop_
_atom_type_symbol
_atom_type_oxidation_number
Au0+ 0
Ga0+ 0
Na0+ 0
loop_
_atom_site_label
_atom_site_type_symbol
_atom_site_symmetry_multiplicity
_atom_site_Wyckoff_symbol
_atom_site_fract_x
_atom_site_fract_y
_atom_site_fract_z
_atom_site_B_iso_or_equiv
_atom_site_occupancy
_atom_site_attached_hydrogens
Au1 Au0+ 4 e 0.82322(7) 0.10332(8) 0.65587(7) 0.00743(16) 1 0
Au2 Au0+ 4 e 1.14499(7) 0.21589(8) 0.92129(7) 0.00529(16) 1 0
Au3 Au0+ 4 e 0.63365(8) 0.39607(8) 0.45333(7) 0.01180(17) 1 0
Au4 Au0+ 4 e 0.62911(8) -0.15420(8) 0.73400(7) 0.00768(16) 1 0
Ga1 Ga0+ 4 e 0.4833(2) 0.1754(2) 0.5850(2) 0.0079(4) 1 0
Ga2 Ga0+ 4 e 1.0033(2) -0.1314(2) 0.8877(2) 0.0057(3) 1 0
Na1 Na0+ 4 e 0.7890(8) 0.0449(9) 0.3248(8) 0.0129(14) 1 0
loop_
_atom_site_aniso_label
_atom_site_aniso_type_symbol
_atom_site_aniso_U_11
_atom_site_aniso_U_22
_atom_site_aniso_U_33
_atom_site_aniso_U_12
_atom_site_aniso_U_13
_atom_site_aniso_U_23
Au1 Au0+ 0.0042(3) 0.0059(3) 0.0103(3) 0.0002(2) 0.0015(2) 0.0030(2)
Au2 Au0+ 0.0031(2) 0.0058(3) 0.0051(3) 0.0001(2) 0.0002(2) 0.0013(2)
Au3 Au0+ 0.0077(3) 0.0078(3) 0.0118(3) -0.0050(2) -0.0031(2) 0.0038(2)
Au4 Au0+ 0.0061(3) 0.0098(3) 0.0058(3) -0.0038(2) 0.0014(2) -0.0019(2)
Ga1 Ga0+ 0.0051(7) 0.0125(9) 0.0066(9) 0.0024(7) 0.0028(7) 0.0012(7)
Ga2 Ga0+ 0.0034(7) 0.0058(9) 0.0069(9) 0.0012(6) 0.0013(6) 0.0006(6)
Na1 Na0+ 0.010(3) 0.014(4) 0.017(4) -0.002(3) 0.008(3) -0.001(3)
#End of TTdata_237469-ICSD