
#(C) 2017 by FIZ Karlsruhe - Leibniz Institute for Information Infrastructure.  All rights reserved.
data_237544-ICSD
_database_code_ICSD 237544
_audit_creation_date 2015-02-01
_chemical_name_systematic 'Barium cadmium platinum (1/4/2)'
_chemical_formula_structural 'Ba Cd4 Pt2'
_chemical_formula_sum 'Ba1 Cd4 Pt2'
_chemical_name_structure_type Fe4Si2Zr
_exptl_crystal_density_diffrn 10.38
_cell_measurement_temperature 293.
_publ_section_title

;
Cluster chemistry in electron-poor Ae- Pt- Cd systems (Ae = Ca, Sr, Ba): (Sr,
Ba) Pt2 Cd4, Ca6 Pt8 Cd16, and its known antitype Er6 Pd16 Sb8
;
loop_
_citation_id
_citation_journal_full
_citation_year
_citation_journal_volume
_citation_page_first
_citation_page_last
_citation_journal_id_ASTM
primary 'Inorganic Chemistry' 2013 52 2697 2704 INOCAJ
loop_
_publ_author_name
'Samal, Saroj L.'
'Gulo, Fakhili'
'Corbett, John D.'
_cell_length_a 8.3719(12)
_cell_length_b 8.3719(12)
_cell_length_c 4.4624(9)
_cell_angle_alpha 90.
_cell_angle_beta 90.
_cell_angle_gamma 90.
_cell_volume 312.76
_cell_formula_units_Z 2
_symmetry_space_group_name_H-M 'P 42/m n m'
_symmetry_Int_Tables_number 136
_refine_ls_R_factor_all 0.0173
loop_
_symmetry_equiv_pos_site_id
_symmetry_equiv_pos_as_xyz
1 '-y+1/2, x+1/2, -z+1/2'
2 'y+1/2, -x+1/2, -z+1/2'
3 'y, x, -z'
4 '-y, -x, -z'
5 'y+1/2, -x+1/2, z+1/2'
6 '-y+1/2, x+1/2, z+1/2'
7 '-y, -x, z'
8 'y, x, z'
9 'x+1/2, -y+1/2, -z+1/2'
10 '-x+1/2, y+1/2, -z+1/2'
11 'x, y, -z'
12 '-x, -y, -z'
13 '-x+1/2, y+1/2, z+1/2'
14 'x+1/2, -y+1/2, z+1/2'
15 '-x, -y, z'
16 'x, y, z'
loop_
_atom_type_symbol
_atom_type_oxidation_number
Pt0+ 0
Ba0+ 0
Cd0+ 0
loop_
_atom_site_label
_atom_site_type_symbol
_atom_site_symmetry_multiplicity
_atom_site_Wyckoff_symbol
_atom_site_fract_x
_atom_site_fract_y
_atom_site_fract_z
_atom_site_B_iso_or_equiv
_atom_site_occupancy
_atom_site_attached_hydrogens
Pt1 Pt0+ 4 f 0.27762(3) 0.27762(3) 0. 0.01094(16) 1 0
Ba1 Ba0+ 2 a 0. 0. 0. 0.0110(2) 1 0
Cd1 Cd0+ 8 i 0.84349(6) 0.40970(7) 0. 0.01119(17) 1 0
loop_
_atom_site_aniso_label
_atom_site_aniso_type_symbol
_atom_site_aniso_U_11
_atom_site_aniso_U_22
_atom_site_aniso_U_33
_atom_site_aniso_U_12
_atom_site_aniso_U_13
_atom_site_aniso_U_23
Pt1 Pt0+ 0.01128(19) 0.01128(19) 0.0102(2) 0.00022(15) 0. 0.
Ba1 Ba0+ 0.0099(3) 0.0099(3) 0.0132(4) 0.0004(3) 0. 0.
Cd1 Cd0+ 0.0132(3) 0.0094(3) 0.0109(3) -0.0015(2) 0. 0.
#End of TTdata_237544-ICSD