
#(C) 2017 by FIZ Karlsruhe - Leibniz Institute for Information Infrastructure.  All rights reserved.
data_237636-ICSD
_database_code_ICSD 237636
_audit_creation_date 2015-02-01
_chemical_name_systematic 'Lithium zinc stannide (3/2/4)'
_chemical_formula_structural 'Li3 Zn2 Sn4'
_chemical_formula_sum 'Li3 Sn4 Zn2'
_chemical_name_structure_type Al3Zr2C4
_exptl_crystal_density_diffrn 5.3
_cell_measurement_temperature 293.
_publ_section_title

;
Lithium-stuffed diamond polytype Zn - Tt structures (Tt = Sn, Ge): The two
lithium-zinc-tetrelides Li3 Zn2 Sn4 and Li2 Zn Ge3
;
loop_
_citation_id
_citation_journal_full
_citation_year
_citation_journal_volume
_citation_page_first
_citation_page_last
_citation_journal_id_ASTM
primary 'Inorganic Chemistry' 2013 52 2809 2816 INOCAJ
loop_
_publ_author_name
'Stegmaier, Saskia'
'Faessler, Thomas.F.'
_cell_length_a 4.5282(2)
_cell_length_b 4.5282(2)
_cell_length_c 22.119(2)
_cell_angle_alpha 90.
_cell_angle_beta 90.
_cell_angle_gamma 120.
_cell_volume 392.77
_cell_formula_units_Z 2
_symmetry_space_group_name_H-M 'P 63/m m c'
_symmetry_Int_Tables_number 194
_refine_ls_R_factor_all 0.0231
loop_
_symmetry_equiv_pos_site_id
_symmetry_equiv_pos_as_xyz
1 'x, x-y, -z+1/2'
2 '-x+y, y, -z+1/2'
3 '-y, -x, -z+1/2'
4 '-x+y, -x, -z+1/2'
5 '-y, x-y, -z+1/2'
6 'x, y, -z+1/2'
7 '-x, -x+y, z+1/2'
8 'x-y, -y, z+1/2'
9 'y, x, z+1/2'
10 'x-y, x, z+1/2'
11 'y, -x+y, z+1/2'
12 '-x, -y, z+1/2'
13 '-x, -x+y, -z'
14 'x-y, -y, -z'
15 'y, x, -z'
16 'x-y, x, -z'
17 'y, -x+y, -z'
18 '-x, -y, -z'
19 'x, x-y, z'
20 '-x+y, y, z'
21 '-y, -x, z'
22 '-x+y, -x, z'
23 '-y, x-y, z'
24 'x, y, z'
loop_
_atom_type_symbol
_atom_type_oxidation_number
Sn0+ 0
Zn0+ 0
Li0+ 0
loop_
_atom_site_label
_atom_site_type_symbol
_atom_site_symmetry_multiplicity
_atom_site_Wyckoff_symbol
_atom_site_fract_x
_atom_site_fract_y
_atom_site_fract_z
_atom_site_B_iso_or_equiv
_atom_site_occupancy
_atom_site_attached_hydrogens
Sn1 Sn0+ 4 f 0.3333 0.6667 0.52900(3) 0.0154(2) 1 0
Sn2 Sn0+ 4 e 0. 0. 0.18351(3) 0.0127(2) 1 0
Zn1 Zn0+ 4 f 0.3333 0.6667 0.65497(5) 0.0166(3) 1 0
Li1 Li0+ 2 c 0.3333 0.6667 0.25 0.016(5) 1 0
Li2 Li0+ 4 f 0.3333 0.6667 0.1079(8) 0.034(5) 1 0
loop_
_atom_site_aniso_label
_atom_site_aniso_type_symbol
_atom_site_aniso_U_11
_atom_site_aniso_U_22
_atom_site_aniso_U_33
_atom_site_aniso_U_12
_atom_site_aniso_U_13
_atom_site_aniso_U_23
Sn1 Sn0+ 0.0159(3) 0.0159(3) 0.0145(3) 0.00794(14) 0. 0.
Sn2 Sn0+ 0.0112(3) 0.0112(3) 0.0157(3) 0.00561(14) 0. 0.
Zn1 Zn0+ 0.0138(4) 0.0138(4) 0.0221(5) 0.00691(18) 0. 0.
Li1 Li0+ 0.015(7) 0.015(7) 0.019(10) 0.008(4) 0. 0.
Li2 Li0+ 0.041(8) 0.041(8) 0.020(8) 0.021(4) 0. 0.
#End of TTdata_237636-ICSD