
#(C) 2017 by FIZ Karlsruhe - Leibniz Institute for Information Infrastructure.  All rights reserved.
data_23788-ICSD
_database_code_ICSD 23788
_audit_creation_date 1980-01-01
_audit_update_record 2016-08-01
_chemical_name_systematic 'Hafnium molybdenum boride (9/4/1)'
_chemical_formula_structural 'Hf9 Mo4 B'
_chemical_formula_sum 'B1 Hf9 Mo4'
_chemical_name_structure_type Hf9Mo4B/Al5Co2
_exptl_crystal_density_diffrn 12.32
_publ_section_title 'Neue K-Boride und verwandte Phasen (Re3B-Typ, aufgefuellt)'
loop_
_citation_id
_citation_journal_full
_citation_year
_citation_journal_volume
_citation_page_first
_citation_page_last
_citation_journal_id_ASTM
primary 'Monatshefte fuer Chemie' 1973 104 182 193 MOCHAP
loop_
_publ_author_name
'Rogl, P.'
'Nowotny, H.N.'
'Benesovsky, F.'
_cell_length_a 8.565
_cell_length_b 8.565
_cell_length_c 8.493
_cell_angle_alpha 90.
_cell_angle_beta 90.
_cell_angle_gamma 120.
_cell_volume 539.57
_cell_formula_units_Z 2
_symmetry_space_group_name_H-M 'P 63/m m c'
_symmetry_Int_Tables_number 194
_refine_ls_R_factor_all 0.094
loop_
_symmetry_equiv_pos_site_id
_symmetry_equiv_pos_as_xyz
1 'x, x-y, -z+1/2'
2 '-x+y, y, -z+1/2'
3 '-y, -x, -z+1/2'
4 '-x+y, -x, -z+1/2'
5 '-y, x-y, -z+1/2'
6 'x, y, -z+1/2'
7 '-x, -x+y, z+1/2'
8 'x-y, -y, z+1/2'
9 'y, x, z+1/2'
10 'x-y, x, z+1/2'
11 'y, -x+y, z+1/2'
12 '-x, -y, z+1/2'
13 '-x, -x+y, -z'
14 'x-y, -y, -z'
15 'y, x, -z'
16 'x-y, x, -z'
17 'y, -x+y, -z'
18 '-x, -y, -z'
19 'x, x-y, z'
20 '-x+y, y, z'
21 '-y, -x, z'
22 '-x+y, -x, z'
23 '-y, x-y, z'
24 'x, y, z'
loop_
_atom_type_symbol
_atom_type_oxidation_number
Hf0+ 0
Mo0+ 0
B0+ 0
loop_
_atom_site_label
_atom_site_type_symbol
_atom_site_symmetry_multiplicity
_atom_site_Wyckoff_symbol
_atom_site_fract_x
_atom_site_fract_y
_atom_site_fract_z
_atom_site_B_iso_or_equiv
_atom_site_occupancy
_atom_site_attached_hydrogens
Hf1 Hf0+ 12 k 0.2032(5) 0.4064(10) 0.0471(8) 1.4 1. 0
Hf2 Hf0+ 6 h 0.5403(7) 0.0806(14) 0.25 1.9 1. 0
Mo1 Mo0+ 6 h 0.8905(9) 0.7810(18) 0.25 1.2 1. 0
Mo2 Mo0+ 2 a 0 0 0 1.9 1. 0
B1 B0+ 2 c 0.3333 0.6667 0.25 2.6 1. 0
#End of TTdata_23788-ICSD