
#(C) 2017 by FIZ Karlsruhe - Leibniz Institute for Information Infrastructure.  All rights reserved.
data_238108-ICSD
_database_code_ICSD 238108
_audit_creation_date 2015-08-01
_chemical_name_systematic 'Dirubidium hydroxide lanthanum diniobate'
_chemical_formula_structural '(Rb2 O H) La Nb2 O7'
_chemical_formula_sum 'H1 La1 Nb2 O8 Rb2'
_chemical_name_structure_type Cs2LaNb2ClO7
_exptl_crystal_density_diffrn 4.49
_publ_section_title

;
Topochemical synthesis of alkali-metal hydroxide layers within double- and
triple-layered perovskites
;
loop_
_citation_id
_citation_journal_full
_citation_year
_citation_journal_volume
_citation_page_first
_citation_page_last
_citation_journal_id_ASTM
primary 'Inorganic Chemistry' 2014 53 1773 1778 INOCAJ
loop_
_publ_author_name
'Montasserasadi, Dariush'
'Mohanty, Debasish'
'Huq, Ashfia'
'Heroux, Luke'
'Payzant, Edward Andrew'
'Wiley, John B.'
_cell_length_a 3.9303(1)
_cell_length_b 3.9303(1)
_cell_length_c 14.9624(9)
_cell_angle_alpha 90.
_cell_angle_beta 90.
_cell_angle_gamma 90.
_cell_volume 231.13
_cell_formula_units_Z 1
_symmetry_space_group_name_H-M 'P 4/m m m'
_symmetry_Int_Tables_number 123
_refine_ls_R_factor_all 0.15
loop_
_symmetry_equiv_pos_site_id
_symmetry_equiv_pos_as_xyz
1 'y, x, -z'
2 '-y, -x, -z'
3 '-y, x, -z'
4 'y, -x, -z'
5 '-x, y, -z'
6 'x, -y, -z'
7 'x, y, -z'
8 '-x, -y, -z'
9 '-y, -x, z'
10 'y, x, z'
11 'y, -x, z'
12 '-y, x, z'
13 'x, -y, z'
14 '-x, y, z'
15 '-x, -y, z'
16 'x, y, z'
loop_
_atom_type_symbol
_atom_type_oxidation_number
Rb1+ 1
O2- -2
La3+ 3
Nb5+ 5
O2- -2
H1+ 1
loop_
_atom_site_label
_atom_site_type_symbol
_atom_site_symmetry_multiplicity
_atom_site_Wyckoff_symbol
_atom_site_fract_x
_atom_site_fract_y
_atom_site_fract_z
_atom_site_B_iso_or_equiv
_atom_site_occupancy
_atom_site_attached_hydrogens
Rb1 Rb1+ 2 g 0 0 0.3313(5) 0.02(1) 1. 0
O1 O2- 1 d 0.5 0.5 0.5 0.02(2) 1. 0
La1 La3+ 1 a 0 0 0 0.0001(5) 1. 0
Nb1 Nb5+ 2 h 0.5 0.5 0.1465(4) 0.001(2) 1. 0
O2 O2- 2 h 0.5 0.5 0.278(2) 0.001(2) 1. 0
O3 O2- 1 c 0.5 0.5 0 0.003(5) 1. 0
O4 O2- 4 i 0 0.5 0.129(2) 0.001(4) 1. 0
#End of TTdata_238108-ICSD