
#(C) 2017 by FIZ Karlsruhe - Leibniz Institute for Information Infrastructure.  All rights reserved.
data_238106-ICSD
_database_code_ICSD 238106
_audit_creation_date 2015-08-01
_chemical_name_systematic 'Hexapotassium zinc pentabismuthide'
_chemical_formula_structural 'K6 Zn Bi5'
_chemical_formula_sum 'Bi5 K6 Zn1'
_exptl_crystal_density_diffrn 4.59
_cell_measurement_temperature 293.
_publ_section_title
'[Zn Bi4]3- pentagon in K6 Zn Bi5: aromatic all-metal heterocycle'
loop_
_citation_id
_citation_journal_full
_citation_year
_citation_journal_volume
_citation_page_first
_citation_page_last
_citation_journal_id_ASTM
primary 'Inorganic Chemistry' 2014 53 1266 1268 INOCAJ
loop_
_publ_author_name
'Qin, Qian'
'Zhou, Liujiang'
'Wang, Yi'
'Sang, Ruili'
'Xu, Li'
_cell_length_a 15.2795(13)
_cell_length_b 5.4980(4)
_cell_length_c 11.5818(11)
_cell_angle_alpha 90.
_cell_angle_beta 90.
_cell_angle_gamma 90.
_cell_volume 972.95
_cell_formula_units_Z 2
_symmetry_space_group_name_H-M 'P m m n Z'
_symmetry_Int_Tables_number 59
_refine_ls_R_factor_all 0.0528
loop_
_symmetry_equiv_pos_site_id
_symmetry_equiv_pos_as_xyz
1 'x+1/2, y+1/2, -z'
2 '-x, y+1/2, -z'
3 'x+1/2, -y, -z'
4 '-x, -y, -z'
5 '-x+1/2, -y+1/2, z'
6 'x, -y+1/2, z'
7 '-x+1/2, y, z'
8 'x, y, z'
loop_
_atom_type_symbol
_atom_type_oxidation_number
Bi1- -1.6
Zn2+ 2
K1+ 1
loop_
_atom_site_label
_atom_site_type_symbol
_atom_site_symmetry_multiplicity
_atom_site_Wyckoff_symbol
_atom_site_fract_x
_atom_site_fract_y
_atom_site_fract_z
_atom_site_B_iso_or_equiv
_atom_site_occupancy
_atom_site_attached_hydrogens
Bi1 Bi1- 4 f 0.10191(6) 0.75 0.17005(7) 0.0231(3) 1 0
Bi2 Bi1- 4 f 0.14971(7) 0.75 0.42035(7) 0.0264(3) 1 0
Bi3 Bi1- 2 b 0.25 0.75 -0.19242(10) 0.0241(4) 1 0
Zn1 Zn2+ 2 b 0.25 0.75 0.0372(3) 0.0226(8) 1 0
K1 K1+ 4 f 0.6165(4) 0.75 0.0606(5) 0.0304(13) 1 0
K2 K1+ 4 f 0.5187(4) 0.25 0.3157(5) 0.0371(14) 1 0
K3 K1+ 2 a 0.25 0.25 0.6085(6) 0.039(2) 1 0
K4 K1+ 2 a 0.25 0.25 0.2555(6) 0.0242(16) 1 0
loop_
_atom_site_aniso_label
_atom_site_aniso_type_symbol
_atom_site_aniso_U_11
_atom_site_aniso_U_22
_atom_site_aniso_U_33
_atom_site_aniso_U_12
_atom_site_aniso_U_13
_atom_site_aniso_U_23
Bi1 Bi1- 0.0291(6) 0.0172(5) 0.0231(5) 0. -0.0013(4) 0.
Bi2 Bi1- 0.0383(6) 0.0210(5) 0.0198(5) 0. 0.0049(4) 0.
Bi3 Bi1- 0.0401(8) 0.0122(6) 0.0200(6) 0. 0. 0.
Zn1 Zn2+ 0.037(2) 0.0101(16) 0.0208(19) 0. 0. 0.
K1 K1+ 0.036(3) 0.019(2) 0.036(3) 0. 0.002(2) 0.
K2 K1+ 0.042(3) 0.026(3) 0.043(3) 0. -0.007(3) 0.
K3 K1+ 0.073(7) 0.022(4) 0.022(4) 0. 0. 0.
K4 K1+ 0.034(4) 0.013(3) 0.026(4) 0. 0. 0.
#End of TTdata_238106-ICSD