
#(C) 2017 by FIZ Karlsruhe - Leibniz Institute for Information Infrastructure.  All rights reserved.
data_23831-ICSD
_database_code_ICSD 23831
_audit_creation_date 1980-01-01
_audit_update_record 1987-11-02
_chemical_name_systematic 1-Iodopentaborane(9)
_chemical_formula_structural 'B5 H8 I'
_chemical_formula_sum 'H8 B5 I1'
_exptl_crystal_density_diffrn 1.8
_publ_section_title 'The Crystal and Molecular Structure of Iodopentaborane-9'
loop_
_citation_id
_citation_journal_full
_citation_year
_citation_journal_volume
_citation_page_first
_citation_page_last
_citation_journal_id_ASTM
primary 'Acta Crystallographica (1,1948-23,1967)' 1965 19 658 661 ACCRA9
loop_
_publ_author_name
'Hall, L.H.'
'Block, S.'
'Perloff, A.'
_cell_length_a 11.24(4)
_cell_length_b 10.03(4)
_cell_length_c 13.14(4)
_cell_angle_alpha 90.
_cell_angle_beta 110.08(16)
_cell_angle_gamma 90.
_cell_volume 1391.32
_cell_formula_units_Z 8
_symmetry_space_group_name_H-M 'C 1 2/c 1'
_symmetry_Int_Tables_number 15
_refine_ls_R_factor_all 0.13
loop_
_symmetry_equiv_pos_site_id
_symmetry_equiv_pos_as_xyz
1 'x, -y, z+1/2'
2 '-x, -y, -z'
3 '-x, y, -z+1/2'
4 'x, y, z'
5 'x+1/2, -y+1/2, z+1/2'
6 '-x+1/2, -y+1/2, -z'
7 '-x+1/2, y+1/2, -z+1/2'
8 'x+1/2, y+1/2, z'
loop_
_atom_type_symbol
_atom_type_oxidation_number
B1+ 1
B2+ 2
I1- -1
H1- -1
loop_
_atom_site_label
_atom_site_type_symbol
_atom_site_symmetry_multiplicity
_atom_site_Wyckoff_symbol
_atom_site_fract_x
_atom_site_fract_y
_atom_site_fract_z
_atom_site_B_iso_or_equiv
_atom_site_occupancy
_atom_site_attached_hydrogens
B1 B1+ 8 f 0.155(2) 0.350(5) 0.136(1) 3. 1. 0
B2 B2+ 8 f 0.130(2) 0.505(11) 0.170(2) 4.2 1. 0
B3 B2+ 8 f 0.215(2) 0.470(5) 0.078(2) 4.5 1. 0
B4 B2+ 8 f 0.317(2) 0.352(6) 0.172(2) 4.9 1. 0
B5 B2+ 8 f 0.220(3) 0.393(7) 0.271(2) 5.7 1. 0
I1 I1- 8 f 0.0191(1) 0.1849(3) 0.0689(1) 4.2 1. 0
#End of TTdata_23831-ICSD