
#(C) 2017 by FIZ Karlsruhe - Leibniz Institute for Information Infrastructure.  All rights reserved.
data_23834-ICSD
_database_code_ICSD 23834
_audit_creation_date 1980-01-01
_chemical_name_systematic 'Scandium boride carbide (1/2/2)'
_chemical_formula_structural 'Sc B2 C2'
_chemical_formula_sum 'C2 B2 Sc1'
_exptl_crystal_density_diffrn 3.36
_publ_section_title 'The Crystal Structure of Sc B2 C2'
loop_
_citation_id
_citation_journal_full
_citation_year
_citation_journal_volume
_citation_page_first
_citation_page_last
_citation_journal_id_ASTM
primary 'Acta Crystallographica (1,1948-23,1967)' 1965 19 668 673 ACCRA9
loop_
_publ_author_name
'Smith, G.S.'
'Johnson, Q.'
'Nordine, P.C.'
_cell_length_a 5.175(5)
_cell_length_b 10.075(7)
_cell_length_c 3.440(5)
_cell_angle_alpha 90.
_cell_angle_beta 90.
_cell_angle_gamma 90.
_cell_volume 179.36
_cell_formula_units_Z 4
_symmetry_space_group_name_H-M 'P b a m'
_symmetry_Int_Tables_number 55
_refine_ls_R_factor_all 0.026
loop_
_symmetry_equiv_pos_site_id
_symmetry_equiv_pos_as_xyz
1 'x+1/2, -y+1/2, z'
2 '-x+1/2, y+1/2, z'
3 'x, y, -z'
4 '-x, -y, -z'
5 '-x+1/2, y+1/2, -z'
6 'x+1/2, -y+1/2, -z'
7 '-x, -y, z'
8 'x, y, z'
loop_
_atom_type_symbol
_atom_type_oxidation_number
Sc0+ 0
B0+ 0
C0+ 0
loop_
_atom_site_label
_atom_site_type_symbol
_atom_site_symmetry_multiplicity
_atom_site_Wyckoff_symbol
_atom_site_fract_x
_atom_site_fract_y
_atom_site_fract_z
_atom_site_B_iso_or_equiv
_atom_site_occupancy
_atom_site_attached_hydrogens
Sc1 Sc0+ 4 g 0.1375(2) 0.1488(1) 0 . 1. 0
B1 B0+ 4 h 0.3608(14) 0.4667(6) 0.5 . 1. 0
B2 B0+ 4 h 0.4836(14) 0.1900(7) 0.5 . 1. 0
C1 C0+ 4 h 0.3904(12) 0.0446(7) 0.5 . 1. 0
C2 C0+ 4 h 0.2948(12) 0.3122(6) 0.5 . 1. 0
loop_
_atom_site_aniso_label
_atom_site_aniso_type_symbol
_atom_site_aniso_beta_11
_atom_site_aniso_beta_22
_atom_site_aniso_beta_33
_atom_site_aniso_beta_12
_atom_site_aniso_beta_13
_atom_site_aniso_beta_23
Sc1 Sc0+ 0.0029(5) 0.0002(1) 0.0079(12) -.0001(3) 0 0
B1 B0+ 0.0048(24) 0.0001(6) 0.0055(55) -.0002(13) 0 0
B2 B0+ 0.0050(24) 0.0008(8) 0.0121(64) 0.0011(12) 0 0
C1 C0+ 0.0067(22) 0.0016(6) 0.0101(52) 0.0005(11) 0 0
C2 C0+ 0.0094(27) 0.0015(7) 0.0183(57) 0.0001(10) 0 0
#End of TTdata_23834-ICSD