
#(C) 2017 by FIZ Karlsruhe - Leibniz Institute for Information Infrastructure.  All rights reserved.
data_23832-ICSD
_database_code_ICSD 23832
_audit_creation_date 1980-01-01
_audit_update_record 2011-02-01
_chemical_name_systematic 'Silver fulminate'
_chemical_formula_structural 'Ag C N O'
_chemical_formula_sum 'C1 Ag1 N1 O1'
_chemical_name_structure_type AgCNO
_exptl_crystal_density_diffrn 4.11
_publ_section_title 'The Crystal Structure of Silver Fulminate'
loop_
_citation_id
_citation_journal_full
_citation_year
_citation_journal_volume
_citation_page_first
_citation_page_last
_citation_journal_id_ASTM
primary 'Acta Crystallographica (1,1948-23,1967)' 1965 19 662 668 ACCRA9
loop_
_publ_author_name
'Britton, D.'
'Dunitz, J.D.'
_cell_length_a 3.864(6)
_cell_length_b 10.722(18)
_cell_length_c 5.851(10)
_cell_angle_alpha 90.
_cell_angle_beta 90.
_cell_angle_gamma 90.
_cell_volume 242.41
_cell_formula_units_Z 4
_symmetry_space_group_name_H-M 'C m c m'
_symmetry_Int_Tables_number 63
_refine_ls_R_factor_all 0.134
loop_
_symmetry_equiv_pos_site_id
_symmetry_equiv_pos_as_xyz
1 '-x, y, -z+1/2'
2 '-x, -y, z+1/2'
3 '-x, y, z'
4 '-x, -y, -z'
5 'x, -y, z+1/2'
6 'x, y, -z+1/2'
7 'x, -y, -z'
8 'x, y, z'
9 '-x+1/2, y+1/2, -z+1/2'
10 '-x+1/2, -y+1/2, z+1/2'
11 '-x+1/2, y+1/2, z'
12 '-x+1/2, -y+1/2, -z'
13 'x+1/2, -y+1/2, z+1/2'
14 'x+1/2, y+1/2, -z+1/2'
15 'x+1/2, -y+1/2, -z'
16 'x+1/2, y+1/2, z'
loop_
_atom_type_symbol
_atom_type_oxidation_number
Ag1+ 1
C4+ 4
N3- -3
O2- -2
loop_
_atom_site_label
_atom_site_type_symbol
_atom_site_symmetry_multiplicity
_atom_site_Wyckoff_symbol
_atom_site_fract_x
_atom_site_fract_y
_atom_site_fract_z
_atom_site_B_iso_or_equiv
_atom_site_occupancy
_atom_site_attached_hydrogens
Ag1 Ag1+ 4 a 0 0 0 6.08 1. 0
C1 C4+ 4 c 0 0.1564(15) 0.25 6.88 1. 0
N1 N3- 4 c 0 0.2584(25) 0.25 4.88 1. 0
O1 O2- 4 c 0 0.3753(17) 0.25 5.72 1. 0
#End of TTdata_23832-ICSD