
#(C) 2017 by FIZ Karlsruhe - Leibniz Institute for Information Infrastructure.  All rights reserved.
data_238759-ICSD
_database_code_ICSD 238759
_audit_creation_date 2016-02-01
_chemical_name_systematic 'Diiron(II) orthosilicate - HP orthorhombic I-phase'
_chemical_formula_structural 'Fe2 Si O4'
_chemical_formula_sum 'Fe2 O4 Si1'
_exptl_crystal_density_diffrn 5.62
_cell_measurement_temperature 300.
_cell_measurement_pressure 54600000.
_publ_section_title
'New structure of high-pressure body-centered orthorhombic Fe2 Si O4'
loop_
_citation_id
_citation_journal_full
_citation_year
_citation_journal_volume
_citation_page_first
_citation_page_last
_citation_journal_id_ASTM
primary 'American Mineralogist' 2015 100 1736 1743 AMMIAY
loop_
_publ_author_name
'Yamanaka, Takamitsu'
'Kyono, Atsushi'
'Nakamoto, Yuki'
'Kharlamova, Svetlana'
'Struzhkin, Viktor V.'
'Gramsch, Stephen A.'
'Mao, Ho-Kwang'
'Hemley, Russell J.'
_cell_length_a 5.543(1)
_cell_length_b 6.032(2)
_cell_length_c 7.201(4)
_cell_angle_alpha 90
_cell_angle_beta 90
_cell_angle_gamma 90
_cell_volume 240.76
_cell_formula_units_Z 4
_symmetry_space_group_name_H-M 'I m m a'
_symmetry_Int_Tables_number 74
loop_
_symmetry_equiv_pos_site_id
_symmetry_equiv_pos_as_xyz
1 '-x, y+1/2, -z'
2 '-x, -y+1/2, z'
3 '-x, y, z'
4 '-x, -y, -z'
5 'x, -y+1/2, z'
6 'x, y+1/2, -z'
7 'x, -y, -z'
8 'x, y, z'
9 '-x+1/2, y, -z+1/2'
10 '-x+1/2, -y, z+1/2'
11 '-x+1/2, y+1/2, z+1/2'
12 '-x+1/2, -y+1/2, -z+1/2'
13 'x+1/2, -y, z+1/2'
14 'x+1/2, y, -z+1/2'
15 'x+1/2, -y+1/2, -z+1/2'
16 'x+1/2, y+1/2, z+1/2'
loop_
_atom_type_symbol
_atom_type_oxidation_number
Fe2+ 2
O2- -2
Si4+ 4
loop_
_atom_site_label
_atom_site_type_symbol
_atom_site_symmetry_multiplicity
_atom_site_Wyckoff_symbol
_atom_site_fract_x
_atom_site_fract_y
_atom_site_fract_z
_atom_site_B_iso_or_equiv
_atom_site_occupancy
_atom_site_attached_hydrogens
Fe1 Fe2+ 4 b 0. 0. 0.5 3.54(1) 1. 0
Fe2 Fe2+ 4 c 0.25 0.25 0.25 3.88(3) 1. 0
O1 O2- 8 h 0. 0.5073(5) 0.7608(8) 4.00(1) 1. 0
O2 O2- 8 i 0.2342(8) 0.25 0.0014(9) 6.24(5) 1. 0
Si1 Si4+ 4 a 0. 0. 0. 4.87(2) 1. 0
loop_
_atom_site_aniso_label
_atom_site_aniso_type_symbol
_atom_site_aniso_U_11
_atom_site_aniso_U_22
_atom_site_aniso_U_33
_atom_site_aniso_U_12
_atom_site_aniso_U_13
_atom_site_aniso_U_23
Fe1 Fe2+ 0.0448 0.0448 0.0448 0. 0. 0.
Fe2 Fe2+ 0.0491 0.0491 0.0491 0. 0. 0.
O1 O2- 0.0506 0.0506 0.0506 0. 0. 0.
O2 O2- 0.079 0.079 0.079 0. 0. 0.
Si1 Si4+ 0.0617 0.0617 0.0617 0. 0. 0.
#End of TTdata_238759-ICSD