
#(C) 2017 by FIZ Karlsruhe - Leibniz Institute for Information Infrastructure.  All rights reserved.
data_239185-ICSD
_database_code_ICSD 239185
_audit_creation_date 2016-08-01
_chemical_name_systematic 'Calcium magnesium silicide (2/3/1)'
_chemical_formula_structural 'Ca2 Mg3 Si'
_chemical_formula_sum 'Ca2 Mg3 Si1'
_chemical_name_structure_type Laves(2H)-MgZn2
_exptl_crystal_density_diffrn 1.93
_cell_measurement_temperature 298.
_publ_section_title

;
Hydrogen Storage and Electronic Characterization of Magnesium-Based
Intermetallics: Exploratory Flux Synthesis for Advanced Materials
;
loop_
_citation_id
_citation_journal_full
_citation_year
_citation_journal_volume
_citation_page_first
_citation_page_last
_citation_journal_id_ASTM
primary 'Dissertation Florida State University' 2009 2009 1 136 DMY005
loop_
_publ_author_name
'Whalen, Jeffrey Brian'
_cell_length_a 6.0650(15)
_cell_length_b 6.0650(15)
_cell_length_c 9.747(3)
_cell_angle_alpha 90.
_cell_angle_beta 90.
_cell_angle_gamma 120.
_cell_volume 310.5
_cell_formula_units_Z 2
_symmetry_space_group_name_H-M 'P 63/m m c'
_symmetry_Int_Tables_number 194
_refine_ls_R_factor_all 0.0219
loop_
_symmetry_equiv_pos_site_id
_symmetry_equiv_pos_as_xyz
1 'x, x-y, -z+1/2'
2 '-x+y, y, -z+1/2'
3 '-y, -x, -z+1/2'
4 '-x+y, -x, -z+1/2'
5 '-y, x-y, -z+1/2'
6 'x, y, -z+1/2'
7 '-x, -x+y, z+1/2'
8 'x-y, -y, z+1/2'
9 'y, x, z+1/2'
10 'x-y, x, z+1/2'
11 'y, -x+y, z+1/2'
12 '-x, -y, z+1/2'
13 '-x, -x+y, -z'
14 'x-y, -y, -z'
15 'y, x, -z'
16 'x-y, x, -z'
17 'y, -x+y, -z'
18 '-x, -y, -z'
19 'x, x-y, z'
20 '-x+y, y, z'
21 '-y, -x, z'
22 '-x+y, -x, z'
23 '-y, x-y, z'
24 'x, y, z'
loop_
_atom_type_symbol
_atom_type_oxidation_number
Ca0+ 0
Si0+ 0
Mg0+ 0
loop_
_atom_site_label
_atom_site_type_symbol
_atom_site_symmetry_multiplicity
_atom_site_Wyckoff_symbol
_atom_site_fract_x
_atom_site_fract_y
_atom_site_fract_z
_atom_site_B_iso_or_equiv
_atom_site_occupancy
_atom_site_attached_hydrogens
Ca1 Ca0+ 4 f 0.3333 0.6667 0.5622(3) . 1. 0
Si1 Si0+ 2 a 0 0 0 . 1. 0
Mg1 Mg0+ 6 h 0.1686(5) 0.3372(11) 0.25 . 1. 0
#End of TTdata_239185-ICSD