
#(C) 2017 by FIZ Karlsruhe - Leibniz Institute for Information Infrastructure.  All rights reserved.
data_239746-ICSD
_database_code_ICSD 239746
_audit_creation_date 2016-08-01
_chemical_name_systematic 'Copper magnesium vanadate'
_chemical_formula_structural 'Cu Mg V O4'
_chemical_formula_sum 'Cu1 Mg1 O4 V1'
_chemical_name_structure_type Na2CrO4
_exptl_crystal_density_diffrn 4.33
_cell_measurement_temperature 293.
_publ_section_title
'Single crystal structures of the new vanadates Cu Mg V O4 and Ag Mg V O4'
loop_
_citation_id
_citation_journal_full
_citation_year
_citation_journal_volume
_citation_page_first
_citation_page_last
_citation_journal_id_ASTM
primary 'Materials Chemistry and Physics' 2016 178 128 132 MCHPDR
loop_
_publ_author_name
'Ben Yahia, Hamdi'
'Shikano, Masahiro'
'Essehli, Rachid'
'Belharouak, Ilias'
_cell_length_a 5.6932(10)
_cell_length_b 8.7055(15)
_cell_length_c 6.2789(10)
_cell_angle_alpha 90
_cell_angle_beta 90
_cell_angle_gamma 90
_cell_volume 311.19
_cell_formula_units_Z 4
_symmetry_space_group_name_H-M 'C m c m'
_symmetry_Int_Tables_number 63
_refine_ls_R_factor_all 0.0226
loop_
_symmetry_equiv_pos_site_id
_symmetry_equiv_pos_as_xyz
1 '-x, y, -z+1/2'
2 '-x, -y, z+1/2'
3 '-x, y, z'
4 '-x, -y, -z'
5 'x, -y, z+1/2'
6 'x, y, -z+1/2'
7 'x, -y, -z'
8 'x, y, z'
9 '-x+1/2, y+1/2, -z+1/2'
10 '-x+1/2, -y+1/2, z+1/2'
11 '-x+1/2, y+1/2, z'
12 '-x+1/2, -y+1/2, -z'
13 'x+1/2, -y+1/2, z+1/2'
14 'x+1/2, y+1/2, -z+1/2'
15 'x+1/2, -y+1/2, -z'
16 'x+1/2, y+1/2, z'
loop_
_atom_type_symbol
_atom_type_oxidation_number
Cu1+ 1
Mg2+ 2
V5+ 5
O2- -2
loop_
_atom_site_label
_atom_site_type_symbol
_atom_site_symmetry_multiplicity
_atom_site_Wyckoff_symbol
_atom_site_fract_x
_atom_site_fract_y
_atom_site_fract_z
_atom_site_B_iso_or_equiv
_atom_site_occupancy
_atom_site_attached_hydrogens
Cu1 Cu1+ 4 c 0 0.33367(8) 0.25 0.0274(3) 1 0
Mg1 Mg2+ 4 a 0 1 0 0.0077(5) 1 0
V1 V5+ 4 c 0 0.64464(9) 0.25 0.0080(3) 1 0
O1 O2- 8 g -0.2540(4) 0.5256(3) 0.25 0.0111(6) 1 0
O2 O2- 8 f 0 0.7610(3) 0.0342(3) 0.0124(6) 1 0
loop_
_atom_site_aniso_label
_atom_site_aniso_type_symbol
_atom_site_aniso_U_11
_atom_site_aniso_U_22
_atom_site_aniso_U_33
_atom_site_aniso_U_12
_atom_site_aniso_U_13
_atom_site_aniso_U_23
Cu1 Cu1+ 0.0415(5) 0.0234(5) 0.0174(4) 0 0 0
Mg1 Mg2+ 0.0093(8) 0.0079(10) 0.0059(8) 0 0 0.0008(4)
V1 V5+ 0.0088(5) 0.0064(5) 0.0087(4) 0 0 0
O1 O2- 0.0114(11) 0.0129(11) 0.0089(10) -0.0038(8) 0 0
O2 O2- 0.0151(11) 0.0092(13) 0.0130(9) 0 0 0.0006(8)
#End of TTdata_239746-ICSD