
#(C) 2017 by FIZ Karlsruhe - Leibniz Institute for Information Infrastructure.  All rights reserved.
data_239731-ICSD
_database_code_ICSD 239731
_audit_creation_date 2016-08-01
_chemical_name_systematic 'Tribarium manganese(II) diniobate'
_chemical_formula_structural 'Ba3 Mn Nb2 O9'
_chemical_formula_sum 'Ba3 Mn1 Nb2 O9'
_chemical_name_structure_type Ba3SrTa2O9
_exptl_crystal_density_diffrn 6.41
_publ_section_title

;
Magnetic phase diagram and multiferrocity of Ba3 Mn Nb2 O9: a spin-5/2
triangular lattice antiferromagnet with weak easy-axis anisotropy
;
loop_
_citation_id
_citation_journal_full
_citation_year
_citation_journal_volume
_citation_page_first
_citation_page_last
_citation_journal_id_ASTM
primary 'Physical Review, Serie 3. B - Condensed Matter (18,1978-)' 2014 90
224402-1 224402-8 PRBMDO
loop_
_publ_author_name
'Lee, M.'
'Choi, E.S.'
'Huang, X.'
'Ma, J.'
'dela Cruz, C.R.'
'Matsuda, M.'
'Tian, W.'
'Dun, Z.L.'
'Dong, S.'
'Zhou, H.D.'
_cell_length_a 5.8036(1)
_cell_length_b 5.8036(1)
_cell_length_c 7.0808(3)
_cell_angle_alpha 90.
_cell_angle_beta 90.
_cell_angle_gamma 120.
_cell_volume 206.54
_cell_formula_units_Z 1
_symmetry_space_group_name_H-M 'P -3 m 1'
_symmetry_Int_Tables_number 164
_refine_ls_R_factor_all 0.0584
loop_
_symmetry_equiv_pos_site_id
_symmetry_equiv_pos_as_xyz
1 'x-y, -y, -z'
2 '-x, -x+y, -z'
3 'y, x, -z'
4 'x-y, x, -z'
5 'y, -x+y, -z'
6 '-x, -y, -z'
7 '-x+y, y, z'
8 'x, x-y, z'
9 '-y, -x, z'
10 '-x+y, -x, z'
11 '-y, x-y, z'
12 'x, y, z'
loop_
_atom_type_symbol
_atom_type_oxidation_number
Ba2+ 2
Mn2+ 2
Nb5+ 5
O2- -2
loop_
_atom_site_label
_atom_site_type_symbol
_atom_site_symmetry_multiplicity
_atom_site_Wyckoff_symbol
_atom_site_fract_x
_atom_site_fract_y
_atom_site_fract_z
_atom_site_B_iso_or_equiv
_atom_site_occupancy
_atom_site_attached_hydrogens
Ba1 Ba2+ 2 d 0.3333 0.6667 0.6617(13) . 1. 0
Ba2 Ba2+ 1 a 0 0 0 . 1. 0
Mn1 Mn2+ 1 b 0 0 0.5 . 1. 0
Nb1 Nb5+ 2 d 0.3333 0.6667 0.1762(10) . 1. 0
O1 O2- 3 e 0.5 0 0 . 1. 0
O2 O2- 6 i 0.1726(7) 0.3452(13) 0.3229(8) . 1. 0
#End of TTdata_239731-ICSD