
#(C) 2017 by FIZ Karlsruhe - Leibniz Institute for Information Infrastructure.  All rights reserved.
data_239758-ICSD
_database_code_ICSD 239758
_audit_creation_date 2016-08-01
_chemical_name_systematic 'Strontium germanide (1/3)'
_chemical_formula_structural 'Sr Ge3'
_chemical_formula_sum 'Ge3 Sr1'
_chemical_name_structure_type CaGe3
_exptl_crystal_density_diffrn 5.55
_publ_section_title

;
Trigermanides AE Ge3 (AE = Ca, Sr, Ba). Chemical bonding and superconductivity
;
loop_
_citation_id
_citation_journal_full
_citation_year
_citation_journal_volume
_citation_page_first
_citation_page_last
_citation_journal_id_ASTM
primary 'Zeitschrift fuer Naturforschung, B: Chemical Sciences' 2016 71 585 592
ZNBSEN
loop_
_publ_author_name
'Castillo, Rodrigo'
'Schnelle, Walter'
'Baranov, Alexey I.'
'Burkhardt, Ulrich'
'Bobnar, Matej'
'Cardoso-Gil, Raul'
'Schwarz, Ulrich'
'Grin, Yuri'
_cell_length_a 7.7873(1)
_cell_length_b 7.7873(1)
_cell_length_c 12.0622(3)
_cell_angle_alpha 90.
_cell_angle_beta 90.
_cell_angle_gamma 90.
_cell_volume 731.48
_cell_formula_units_Z 8
_symmetry_space_group_name_H-M 'I 4/m m m'
_symmetry_Int_Tables_number 139
_refine_ls_R_factor_all 0.1
loop_
_symmetry_equiv_pos_site_id
_symmetry_equiv_pos_as_xyz
1 'y, x, -z'
2 '-y, -x, -z'
3 '-y, x, -z'
4 'y, -x, -z'
5 '-x, y, -z'
6 'x, -y, -z'
7 'x, y, -z'
8 '-x, -y, -z'
9 '-y, -x, z'
10 'y, x, z'
11 'y, -x, z'
12 '-y, x, z'
13 'x, -y, z'
14 '-x, y, z'
15 '-x, -y, z'
16 'x, y, z'
17 'y+1/2, x+1/2, -z+1/2'
18 '-y+1/2, -x+1/2, -z+1/2'
19 '-y+1/2, x+1/2, -z+1/2'
20 'y+1/2, -x+1/2, -z+1/2'
21 '-x+1/2, y+1/2, -z+1/2'
22 'x+1/2, -y+1/2, -z+1/2'
23 'x+1/2, y+1/2, -z+1/2'
24 '-x+1/2, -y+1/2, -z+1/2'
25 '-y+1/2, -x+1/2, z+1/2'
26 'y+1/2, x+1/2, z+1/2'
27 'y+1/2, -x+1/2, z+1/2'
28 '-y+1/2, x+1/2, z+1/2'
29 'x+1/2, -y+1/2, z+1/2'
30 '-x+1/2, y+1/2, z+1/2'
31 '-x+1/2, -y+1/2, z+1/2'
32 'x+1/2, y+1/2, z+1/2'
loop_
_atom_type_symbol
_atom_type_oxidation_number
Sr2+ 2
Ge0+ -0.67
loop_
_atom_site_label
_atom_site_type_symbol
_atom_site_symmetry_multiplicity
_atom_site_Wyckoff_symbol
_atom_site_fract_x
_atom_site_fract_y
_atom_site_fract_z
_atom_site_B_iso_or_equiv
_atom_site_occupancy
_atom_site_attached_hydrogens
Sr1 Sr2+ 4 e 0 0 0.1709(3) 0.94(7) 1. 0
Sr2 Sr2+ 4 d 0.5 0 0.25 0.74(7) 1. 0
Ge1 Ge0+ 8 i 0.3370(4) 0 0 0.90(6) 1. 0
Ge2 Ge0+ 16 m 0.3177(2) 0.3177(2) 0.1050(2) 1.34(5) 1. 0
#End of TTdata_239758-ICSD