
#(C) 2017 by FIZ Karlsruhe - Leibniz Institute for Information Infrastructure.  All rights reserved.
data_239964-ICSD
_database_code_ICSD 239964
_audit_creation_date 2017-08-01
_chemical_name_systematic 'Diiron(II) bis(sulfate(VI))'
_chemical_formula_structural 'Fe2 (S O4)2'
_chemical_formula_sum 'Fe2 O8 S2'
_chemical_name_structure_type CrVO4
_exptl_crystal_density_diffrn 3.65
_publ_section_title

;
Unveiling the electrochemical mechanisms of Li2 Fe (S O4)2 polymorphs by
neutron diffraction and density functional theory calculations
;
loop_
_citation_id
_citation_journal_full
_citation_year
_citation_journal_volume
_citation_page_first
_citation_page_last
_citation_journal_id_ASTM
primary 'Physical Chemistry Chemical Physics' 2016 18 14509 14519 PPCPFQ
loop_
_publ_author_name
'Lander, Laura'
'Reynaud, Marine'
'Carrasco, Javier'
'Katcho, Nebil A.'
'Bellin, Christophe'
'Polian, Alain'
'Baptiste, Benoit'
'Rousse, Gwenaelle'
'Tarascon, Jean-Marie'
_cell_length_a 5.2642(11)
_cell_length_b 7.984(2)
_cell_length_c 6.582(5)
_cell_angle_alpha 90.
_cell_angle_beta 90.
_cell_angle_gamma 90.
_cell_volume 276.63
_cell_formula_units_Z 2
_symmetry_space_group_name_H-M 'C m c m'
_symmetry_Int_Tables_number 63
_refine_ls_R_factor_all 0.0123
loop_
_symmetry_equiv_pos_site_id
_symmetry_equiv_pos_as_xyz
1 '-x, y, -z+1/2'
2 '-x, -y, z+1/2'
3 '-x, y, z'
4 '-x, -y, -z'
5 'x, -y, z+1/2'
6 'x, y, -z+1/2'
7 'x, -y, -z'
8 'x, y, z'
9 '-x+1/2, y+1/2, -z+1/2'
10 '-x+1/2, -y+1/2, z+1/2'
11 '-x+1/2, y+1/2, z'
12 '-x+1/2, -y+1/2, -z'
13 'x+1/2, -y+1/2, z+1/2'
14 'x+1/2, y+1/2, -z+1/2'
15 'x+1/2, -y+1/2, -z'
16 'x+1/2, y+1/2, z'
loop_
_atom_type_symbol
_atom_type_oxidation_number
Fe2+ 2
S6+ 6
O2- -2
loop_
_atom_site_label
_atom_site_type_symbol
_atom_site_symmetry_multiplicity
_atom_site_Wyckoff_symbol
_atom_site_fract_x
_atom_site_fract_y
_atom_site_fract_z
_atom_site_B_iso_or_equiv
_atom_site_occupancy
_atom_site_attached_hydrogens
Fe1 Fe2+ 4 a 0. 0. 0. 0. 1. 0
S1 S6+ 4 c 0. 0.3479 0.25 0. 1. 0
O1 O2- 8 f 0. 0.2481 0.0644 0. 1. 0
O2 O2- 8 g 0.2036 0.4539 0.25 0. 1. 0
#End of TTdata_239964-ICSD