
#(C) 2017 by FIZ Karlsruhe - Leibniz Institute for Information Infrastructure.  All rights reserved.
data_240039-ICSD
_database_code_ICSD 240039
_audit_creation_date 2003-10-01
_chemical_name_systematic 'Potassium mercury (3/11)'
_chemical_formula_structural 'K3 Hg11'
_chemical_formula_sum 'Hg11 K3'
_chemical_name_structure_type Al11La3
_exptl_crystal_density_diffrn 10.13
_publ_section_title

;
Synthesis and Structure of the Alkali Metal Amalgams A3Hg20 (A=Rb,Cs), K3Hg11,
Cs5Hg19, and A7Hg31 (A=K,Rb)
;
loop_
_citation_id
_citation_journal_full
_citation_year
_citation_journal_volume
_citation_page_first
_citation_page_last
_citation_journal_id_ASTM
primary 'Journal of Solid State Chemistry' 2000 149 419 427 JSSCBI
loop_
_publ_author_name
'Todorov, E.'
'Sevov, S.C.'
_cell_length_a 5.122(1)
_cell_length_b 10.063(2)
_cell_length_c 14.782(3)
_cell_angle_alpha 90
_cell_angle_beta 90
_cell_angle_gamma 90
_cell_volume 761.9
_cell_formula_units_Z 2
_symmetry_space_group_name_H-M 'I m m m'
_symmetry_Int_Tables_number 71
_refine_ls_R_factor_all 0.0804
loop_
_symmetry_equiv_pos_site_id
_symmetry_equiv_pos_as_xyz
1 'x, y, -z'
2 'x, -y, z'
3 '-x, y, z'
4 '-x, -y, -z'
5 '-x, -y, z'
6 '-x, y, -z'
7 'x, -y, -z'
8 'x, y, z'
9 'x+1/2, y+1/2, -z+1/2'
10 'x+1/2, -y+1/2, z+1/2'
11 '-x+1/2, y+1/2, z+1/2'
12 '-x+1/2, -y+1/2, -z+1/2'
13 '-x+1/2, -y+1/2, z+1/2'
14 '-x+1/2, y+1/2, -z+1/2'
15 'x+1/2, -y+1/2, -z+1/2'
16 'x+1/2, y+1/2, z+1/2'
loop_
_atom_type_symbol
_atom_type_oxidation_number
Hg0+ 0
K0+ 0
loop_
_atom_site_label
_atom_site_type_symbol
_atom_site_symmetry_multiplicity
_atom_site_Wyckoff_symbol
_atom_site_fract_x
_atom_site_fract_y
_atom_site_fract_z
_atom_site_B_iso_or_equiv
_atom_site_occupancy
_atom_site_attached_hydrogens
Hg1 Hg0+ 8 l 0 0.2920(2) 0.1402(2) 0.0332(9) 1. 0
Hg2 Hg0+ 8 l 0 0.3559(2) 0.3410(2) 0.0321(9) 1. 0
Hg3 Hg0+ 4 h 0 0.8254(4) 0.5 0.050(2) 1. 0
Hg4 Hg0+ 2 d 0.5 0 0.5 0.084(4) 1. 0
K1 K0+ 2 a 0 0 0 0.034(8) 1. 0
K2 K0+ 4 i 0 0 0.709(1) 0.030(5) 1. 0
loop_
_atom_site_aniso_label
_atom_site_aniso_type_symbol
_atom_site_aniso_U_11
_atom_site_aniso_U_22
_atom_site_aniso_U_33
_atom_site_aniso_U_12
_atom_site_aniso_U_13
_atom_site_aniso_U_23
Hg1 Hg0+ 0.033(2) 0.032(2) 0.035(2) 0 0 0.0012(8)
Hg2 Hg0+ 0.030(2) 0.028(1) 0.038(2) 0 0 0.0033(8)
Hg3 Hg0+ 0.061(4) 0.061(3) 0.028(2) 0 0 0
Hg4 Hg0+ 0.14(1) 0.058(4) 0.053(4) 0 0 0
K1 K0+ 0.04(2) 0.05(2) 0.02(1) 0 0 0
K2 K0+ 0.04(1) 0.021(9) 0.03(1) 0 0 0
#End of TTdata_240039-ICSD