
#(C) 2017 by FIZ Karlsruhe - Leibniz Institute for Information Infrastructure.  All rights reserved.
data_240281-ICSD
_database_code_ICSD 240281
_audit_creation_date 2005-10-01
_audit_update_record 2006-04-01
_chemical_name_systematic 'Tribarium nickel ditantalate'
_chemical_formula_structural 'Ba3 Ni (Ta2 O9)'
_chemical_formula_sum 'Ba3 Ni1 O9 Ta2'
_chemical_name_structure_type Ba3SrTa2O9
_exptl_crystal_density_diffrn 7.99
_publ_section_title

;
Crystal structures, modeling, and dielectric property relationships of 2:1
ordered Ba3 M M'2 O9 (M = Mg, Ni, Zn; M' = Nb, Ta) perovskites
;
loop_
_citation_id
_citation_journal_full
_citation_year
_citation_journal_volume
_citation_page_first
_citation_page_last
_citation_journal_id_ASTM
primary 'Chemistry of Materials' 2004 16 2148 2156 CMATEX
loop_
_publ_author_name
'Lufaso, M.W.'
_cell_length_a 5.75513
_cell_length_b 5.75513
_cell_length_c 7.07480(12)
_cell_angle_alpha 90.
_cell_angle_beta 90.
_cell_angle_gamma 120.
_cell_volume 202.93
_cell_formula_units_Z 1
_symmetry_space_group_name_H-M 'P -3 m 1'
_symmetry_Int_Tables_number 164
loop_
_symmetry_equiv_pos_site_id
_symmetry_equiv_pos_as_xyz
1 'x-y, -y, -z'
2 '-x, -x+y, -z'
3 'y, x, -z'
4 'x-y, x, -z'
5 'y, -x+y, -z'
6 '-x, -y, -z'
7 '-x+y, y, z'
8 'x, x-y, z'
9 '-y, -x, z'
10 '-x+y, -x, z'
11 '-y, x-y, z'
12 'x, y, z'
loop_
_atom_type_symbol
_atom_type_oxidation_number
Ba2+ 2
Ni2+ 2
Ta5+ 5
O2- -2
loop_
_atom_site_label
_atom_site_type_symbol
_atom_site_symmetry_multiplicity
_atom_site_Wyckoff_symbol
_atom_site_fract_x
_atom_site_fract_y
_atom_site_fract_z
_atom_site_B_iso_or_equiv
_atom_site_occupancy
_atom_site_attached_hydrogens
Ba1 Ba2+ 2 d 0.33333 0.66667 0.6635(7) 0.0074(8) 1. 0
Ba2 Ba2+ 1 a 0. 0. 0. 0.0056(14) 1. 0
Ni1 Ni2+ 1 b 0. 0. 0.5 0.0079(8) 1. 0
Ta1 Ta5+ 2 d 0.33333 0.66667 0.1774(5) 0.0014(6) 1. 0
O1 O2- 3 e 0.5 0. 0. 0.0101(9) 1. 0
O2 O2- 6 i 0.16954(28) 0.3391(6) 0.3257(4) 0.0072(5) 1. 0
#End of TTdata_240281-ICSD