
#(C) 2017 by FIZ Karlsruhe - Leibniz Institute for Information Infrastructure.  All rights reserved.
data_240201-ICSD
_database_code_ICSD 240201
_audit_creation_date 2004-10-01
_audit_update_record 2012-02-01
_chemical_name_systematic 'Indium iridium (3/1)'
_chemical_formula_structural 'In3 Ir'
_chemical_formula_sum 'In3 Ir1'
_chemical_name_structure_type In3Ir
_exptl_crystal_density_diffrn 10.83
_publ_section_title
'The crystal structure of a new low temperature modification of In3 Ir'
loop_
_citation_id
_citation_journal_full
_citation_year
_citation_journal_volume
_citation_page_first
_citation_page_last
_citation_journal_id_ASTM
primary 'Journal of Alloys and Compounds' 2004 368 256 259 JALCEU
loop_
_publ_author_name
'Flandorfer, H.'
_cell_length_a 7.460(1)
_cell_length_b 8.319(2)
_cell_length_c 5.315(1)
_cell_angle_alpha 90
_cell_angle_beta 90
_cell_angle_gamma 90
_cell_volume 329.85
_cell_formula_units_Z 4
_symmetry_space_group_name_H-M 'P n m a'
_symmetry_Int_Tables_number 62
_refine_ls_R_factor_all 0.024
loop_
_symmetry_equiv_pos_site_id
_symmetry_equiv_pos_as_xyz
1 'x+1/2, y, -z+1/2'
2 'x, -y+1/2, z'
3 '-x+1/2, y+1/2, z+1/2'
4 '-x, -y, -z'
5 '-x+1/2, -y, z+1/2'
6 '-x, y+1/2, -z'
7 'x+1/2, -y+1/2, -z+1/2'
8 'x, y, z'
loop_
_atom_type_symbol
_atom_type_oxidation_number
In0+ 0
Ir0+ 0
loop_
_atom_site_label
_atom_site_type_symbol
_atom_site_symmetry_multiplicity
_atom_site_Wyckoff_symbol
_atom_site_fract_x
_atom_site_fract_y
_atom_site_fract_z
_atom_site_B_iso_or_equiv
_atom_site_occupancy
_atom_site_attached_hydrogens
In1 In0+ 8 d 0.1694(1) 0.0540(1) 0.1332(1) 0.007(1) 1. 0
In2 In0+ 4 c 0.0246(1) 0.25 0.6395(1) 0.008(1) 1. 0
Ir1 Ir0+ 4 c 0.3715(1) 0.25 0.4357(1) 0.004(1) 1. 0
#End of TTdata_240201-ICSD