
#(C) 2017 by FIZ Karlsruhe - Leibniz Institute for Information Infrastructure.  All rights reserved.
data_240776-ICSD
_database_code_ICSD 240776
_audit_creation_date 2007-08-01
_chemical_name_systematic 'Trigold tin heptaphosphide'
_chemical_formula_structural '(Au3 Sn) P7'
_chemical_formula_sum 'Au3 P7 Sn1'
_chemical_name_structure_type Ag3SnP7
_exptl_crystal_density_diffrn 7.63
_publ_section_title

;
M3 Sn Cu P10 und M3 Sn P7 (M = Ag, Au): Neue [M3Sn] Heterocluster -
Polyphosphide
;
loop_
_citation_id
_citation_journal_full
_citation_year
_citation_journal_volume
_citation_page_first
_citation_page_last
_citation_journal_id_ASTM
primary 'Zeitschrift fuer Anorganische und Allgemeine Chemie (1950) (DE)' 2006
632 2098 2098 ZAACAB
loop_
_publ_author_name
'Nilges, T.'
'Lange, S.'
_cell_length_a 6.219(2)
_cell_length_b 10.836(2)
_cell_length_c 6.318(2)
_cell_angle_alpha 90
_cell_angle_beta 108.65(2)
_cell_angle_gamma 90
_cell_volume 403.41
_cell_formula_units_Z 2
_symmetry_space_group_name_H-M 'P 1 21/m 1'
_symmetry_Int_Tables_number 11
_refine_ls_R_factor_all 0.0685
loop_
_symmetry_equiv_pos_site_id
_symmetry_equiv_pos_as_xyz
1 'x, -y+1/2, z'
2 '-x, -y, -z'
3 '-x, y+1/2, -z'
4 'x, y, z'
loop_
_atom_type_symbol
_atom_type_oxidation_number
Au0+ 0
Sn0+ 0
P0+ 0
loop_
_atom_site_label
_atom_site_type_symbol
_atom_site_symmetry_multiplicity
_atom_site_Wyckoff_symbol
_atom_site_fract_x
_atom_site_fract_y
_atom_site_fract_z
_atom_site_B_iso_or_equiv
_atom_site_occupancy
_atom_site_attached_hydrogens
Au1 Au0+ 2 e 0.93024(13) 0.25 0.68441(15) 0.0136(3) 1 0
Au2 Au0+ 4 f 0.31398(9) 0.10306(7) 0.68757(11) 0.0155(2) 1 0
Sn1 Sn0+ 2 e 0.3100(2) 0.25 0.0446(3) 0.0115(4) 1 0
P1 P0+ 4 f 0.8342(6) 0.0785(4) 0.1671(7) 0.0128(12) 1 0
P2 P0+ 4 f 0.2813(5) -0.0934(4) 0.1967(7) 0.0118(11) 1 0
P3 P0+ 4 f 0.1996(6) 0.0889(4) 0.2908(7) 0.0108(11) 1 0
P4 P0+ 2 e 0.7335(8) 0.25 0.2861(10) 0.0113(17) 1 0
loop_
_atom_site_aniso_label
_atom_site_aniso_type_symbol
_atom_site_aniso_U_11
_atom_site_aniso_U_22
_atom_site_aniso_U_33
_atom_site_aniso_U_12
_atom_site_aniso_U_13
_atom_site_aniso_U_23
Au1 Au0+ 0.0121(4) 0.0138(5) 0.0145(4) 0 0.0038(3) 0
Au2 Au0+ 0.0107(3) 0.0211(4) 0.0140(3) 0.0006(3) 0.00323(18) -0.0008(3)
Sn1 Sn0+ 0.0092(6) 0.0105(8) 0.0143(7) 0 0.0033(5) 0
P1 P0+ 0.0098(15) 0.016(2) 0.0141(19) 0.0004(15) 0.0062(11) 0.0002(16)
P2 P0+ 0.0085(15) 0.013(2) 0.0128(18) 0.0011(14) 0.0022(11) -0.0003(16)
P3 P0+ 0.0084(14) 0.010(2) 0.0117(18) -0.0005(14) 0.0002(11) -0.0007(16)
P4 P0+ 0.012(2) 0.009(3) 0.015(3) 0 0.0063(19) 0
#End of TTdata_240776-ICSD