
#(C) 2017 by FIZ Karlsruhe - Leibniz Institute for Information Infrastructure.  All rights reserved.
data_24191-ICSD
_database_code_ICSD 24191
_audit_creation_date 1980-01-01
_audit_update_record 2012-08-01
_chemical_name_systematic 'Cadmium divanadate'
_chemical_formula_structural 'Cd2 V2 O7'
_chemical_formula_sum 'Cd2 O7 V2'
_chemical_name_structure_type Sc2Si2O7
_exptl_crystal_density_diffrn 4.68
_publ_section_title 'Crystal structure of Cd2 V2 O7'
loop_
_citation_id
_citation_journal_full
_citation_year
_citation_journal_volume
_citation_page_first
_citation_page_last
_citation_journal_id_ASTM
primary 'Canadian Journal of Chemistry' 1967 45 2297 2302 CJCHAG
loop_
_publ_author_name
'Au, P.K.L.'
'Calvo, C.'
_cell_length_a 7.088(5)
_cell_length_b 9.091(5)
_cell_length_c 4.963(5)
_cell_angle_alpha 90.
_cell_angle_beta 103.35(8)
_cell_angle_gamma 90.
_cell_volume 311.16
_cell_formula_units_Z 2
_symmetry_space_group_name_H-M 'C 1 2/m 1'
_symmetry_Int_Tables_number 12
_refine_ls_R_factor_all 0.061
loop_
_symmetry_equiv_pos_site_id
_symmetry_equiv_pos_as_xyz
1 '-x, y, -z'
2 '-x, -y, -z'
3 'x, -y, z'
4 'x, y, z'
5 '-x+1/2, y+1/2, -z'
6 '-x+1/2, -y+1/2, -z'
7 'x+1/2, -y+1/2, z'
8 'x+1/2, y+1/2, z'
loop_
_atom_type_symbol
_atom_type_oxidation_number
Cd2+ 2
V5+ 5
O2- -2
loop_
_atom_site_label
_atom_site_type_symbol
_atom_site_symmetry_multiplicity
_atom_site_Wyckoff_symbol
_atom_site_fract_x
_atom_site_fract_y
_atom_site_fract_z
_atom_site_B_iso_or_equiv
_atom_site_occupancy
_atom_site_attached_hydrogens
Cd1 Cd2+ 4 h 0 0.3052(2) 0.5 . 1. 0
V1 V5+ 4 i 0.2262(5) 0 0.9088(8) . 1. 0
O1 O2- 2 a 0 0 0 . 1. 0
O2 O2- 4 i 0.3881(21) 0 0.2129(35) . 1. 0
O3 O2- 8 j 0.2378(17) 0.1566(11) 0.7199(23) . 1. 0
loop_
_atom_site_aniso_label
_atom_site_aniso_type_symbol
_atom_site_aniso_U_11
_atom_site_aniso_U_22
_atom_site_aniso_U_33
_atom_site_aniso_U_12
_atom_site_aniso_U_13
_atom_site_aniso_U_23
Cd1 Cd2+ 0.0095(6) 0.0088(5) 0.0100(6) 0 0.0016(5) 0
V1 V5+ 0.0075(12) 0.0079(12) 0.0044(13) 0 0.0012(15) 0
O1 O2- 0.025(11) 0.028(13) 0.061(21) 0 0.037(15) 0
O2 O2- 0.0056(48) 0.0135(55) 0.0122(63) 0 -.0078(63) 0
O3 O2- 0.0221(48) 0.007(3) 0.0147(47) 0.0026(24) 0.0105(52) 0.0050(31)
#End of TTdata_24191-ICSD