
#(C) 2017 by FIZ Karlsruhe - Leibniz Institute for Information Infrastructure.  All rights reserved.
data_242115-ICSD
_database_code_ICSD 242115
_audit_creation_date 2017-08-01
_chemical_name_systematic 'Silver(I) iron(III) oxide - 2H'
_chemical_formula_structural 'Ag Fe O2'
_chemical_formula_sum 'Ag1 Fe1 O2'
_chemical_name_structure_type CuFeO2
_chemical_name_mineral Delafossite
_exptl_crystal_density_diffrn 6.56
_publ_section_title

;
X-ray diffraction and 57Fe Moessbauer spectroscopy studies of delafossite
AgFeO2 prepared by co-precipitation method
;
_publ_section_comment 'Cell and Type only determined'
loop_
_citation_id
_citation_journal_full
_citation_year
_citation_journal_volume
_citation_page_first
_citation_page_last
_citation_journal_id_ASTM
primary 'Journal of Alloys and Compounds' 2017 690 182 188 JALCEU
loop_
_publ_author_name
'Siedliska, Karolina'
'Pikula, Tomasz'
'Surowiec, Zbigniew'
'Chocyk, Dariusz'
'Jartych, Elzbieta'
_cell_length_a 3.039(2)
_cell_length_b 3.039(2)
_cell_length_c 12.395(5)
_cell_angle_alpha 90.
_cell_angle_beta 90.
_cell_angle_gamma 120.
_cell_volume 99.14
_cell_formula_units_Z 2
_symmetry_space_group_name_H-M 'P 63/m m c'
_symmetry_Int_Tables_number 194
loop_
_symmetry_equiv_pos_site_id
_symmetry_equiv_pos_as_xyz
1 'x, x-y, -z+1/2'
2 '-x+y, y, -z+1/2'
3 '-y, -x, -z+1/2'
4 '-x+y, -x, -z+1/2'
5 '-y, x-y, -z+1/2'
6 'x, y, -z+1/2'
7 '-x, -x+y, z+1/2'
8 'x-y, -y, z+1/2'
9 'y, x, z+1/2'
10 'x-y, x, z+1/2'
11 'y, -x+y, z+1/2'
12 '-x, -y, z+1/2'
13 '-x, -x+y, -z'
14 'x-y, -y, -z'
15 'y, x, -z'
16 'x-y, x, -z'
17 'y, -x+y, -z'
18 '-x, -y, -z'
19 'x, x-y, z'
20 '-x+y, y, z'
21 '-y, -x, z'
22 '-x+y, -x, z'
23 '-y, x-y, z'
24 'x, y, z'
loop_
_atom_type_symbol
_atom_type_oxidation_number
Ag1+ 1
Fe3+ 3
O2- -2
loop_
_atom_site_label
_atom_site_type_symbol
_atom_site_symmetry_multiplicity
_atom_site_Wyckoff_symbol
_atom_site_fract_x
_atom_site_fract_y
_atom_site_fract_z
_atom_site_B_iso_or_equiv
_atom_site_occupancy
_atom_site_attached_hydrogens
Ag1 Ag1+ 2 c 0.3333 0.6667 0.25 . 1. 0
Fe1 Fe3+ 2 a 0 0 0 . 1. 0
O1 O2- 4 f 0.3333 0.6667 0.0833(10) . 1. 0
#End of TTdata_242115-ICSD