
#(C) 2017 by FIZ Karlsruhe - Leibniz Institute for Information Infrastructure.  All rights reserved.
data_2421-ICSD
_database_code_ICSD 2421
_audit_creation_date 1980-01-01
_audit_update_record 2013-02-01
_chemical_name_systematic 'Cobalt molybdenum phosphide (1/1/1)'
_chemical_formula_structural 'Co Mo P'
_chemical_formula_sum 'Co1 Mo1 P1'
_chemical_name_structure_type TiNiSi-MgSrSi
_exptl_crystal_density_diffrn 8.42
_publ_section_title
'Structure cristalline du phosphure de cobalt-molybdene: Co Mo P'
loop_
_citation_id
_citation_journal_full
_citation_year
_citation_journal_volume
_citation_page_first
_citation_page_last
_citation_journal_id_ASTM
primary 'Acta Crystallographica B (24,1968-38,1982)' 1978 34 3312 3314 ACBCAR
loop_
_publ_author_name
'Guerin, R.'
'Sergent, M.'
_cell_length_a 5.827(3)
_cell_length_b 3.711(2)
_cell_length_c 6.780(4)
_cell_angle_alpha 90.
_cell_angle_beta 90.
_cell_angle_gamma 90.
_cell_volume 146.61
_cell_formula_units_Z 4
_symmetry_space_group_name_H-M 'P n m a'
_symmetry_Int_Tables_number 62
_refine_ls_R_factor_all 0.044
loop_
_symmetry_equiv_pos_site_id
_symmetry_equiv_pos_as_xyz
1 'x+1/2, y, -z+1/2'
2 'x, -y+1/2, z'
3 '-x+1/2, y+1/2, z+1/2'
4 '-x, -y, -z'
5 '-x+1/2, -y, z+1/2'
6 '-x, y+1/2, -z'
7 'x+1/2, -y+1/2, -z+1/2'
8 'x, y, z'
loop_
_atom_type_symbol
_atom_type_oxidation_number
Co0+ 0
Mo0+ 0
P0+ 0
loop_
_atom_site_label
_atom_site_type_symbol
_atom_site_symmetry_multiplicity
_atom_site_Wyckoff_symbol
_atom_site_fract_x
_atom_site_fract_y
_atom_site_fract_z
_atom_site_B_iso_or_equiv
_atom_site_occupancy
_atom_site_attached_hydrogens
Co1 Co0+ 4 c 0.85906(14) 0.25 0.06581(11) . 1. 0
Mo1 Mo0+ 4 c 0.96875(10) 0.25 0.67050(6) . 1. 0
P1 P0+ 4 c 0.23588(26) 0.25 0.12009(22) . 1. 0
loop_
_atom_site_aniso_label
_atom_site_aniso_type_symbol
_atom_site_aniso_beta_11
_atom_site_aniso_beta_22
_atom_site_aniso_beta_33
_atom_site_aniso_beta_12
_atom_site_aniso_beta_13
_atom_site_aniso_beta_23
Co1 Co0+ 0.0028(3) 0.0051(6) 0.0033(2) 0 -.0002(1) 0
Mo1 Mo0+ 0.0017(3) 0.0009(5) 0.0019(2) 0 0 0
P1 P0+ 0.0013(4) 0.0036(9) 0.0028(3) 0 -.0006(2) 0
#End of TTdata_2421-ICSD