
#(C) 2017 by FIZ Karlsruhe - Leibniz Institute for Information Infrastructure.  All rights reserved.
data_24304-ICSD
_database_code_ICSD 24304
_audit_creation_date 1980-01-01
_audit_update_record 2006-04-01
_chemical_name_systematic 'Scandium oxide hydroxide - alpha'
_chemical_formula_structural 'Sc O (O H)'
_chemical_formula_sum 'H1 O2 Sc1'
_chemical_name_structure_type AlOOH(Diaspore)
_exptl_crystal_density_diffrn 3.29
_publ_section_title

;
Hydrothermal preparation of alpha-Sc O O H and of gamma-Sc O O H. Crystal
structure of alpha-Sc O O H
;
loop_
_citation_id
_citation_journal_full
_citation_year
_citation_journal_volume
_citation_page_first
_citation_page_last
_citation_journal_id_ASTM
primary 'Acta Chemica Scandinavica (1-27,1973-42,1988)' 1967 21 121 126 ACSAA4
loop_
_publ_author_name
'Christensen, A.N.'
'Jensen, S.J.'
_cell_length_a 4.755
_cell_length_b 10.301
_cell_length_c 3.209
_cell_angle_alpha 90.
_cell_angle_beta 90.
_cell_angle_gamma 90.
_cell_volume 157.18
_cell_formula_units_Z 4
_symmetry_space_group_name_H-M 'P b n m'
_symmetry_Int_Tables_number 62
_refine_ls_R_factor_all 0.085
loop_
_symmetry_equiv_pos_site_id
_symmetry_equiv_pos_as_xyz
1 '-x+1/2, y+1/2, z'
2 'x, y, -z+1/2'
3 'x+1/2, -y+1/2, z+1/2'
4 '-x, -y, -z'
5 'x+1/2, -y+1/2, -z'
6 '-x, -y, z+1/2'
7 '-x+1/2, y+1/2, -z+1/2'
8 'x, y, z'
loop_
_atom_type_symbol
_atom_type_oxidation_number
Sc3+ 3
O2- -2
H1+ 1
loop_
_atom_site_label
_atom_site_type_symbol
_atom_site_symmetry_multiplicity
_atom_site_Wyckoff_symbol
_atom_site_fract_x
_atom_site_fract_y
_atom_site_fract_z
_atom_site_B_iso_or_equiv
_atom_site_occupancy
_atom_site_attached_hydrogens
Sc1 Sc3+ 4 c 0.065(3) -.148(1) 0.25 0.2 1. 0
O1 O2- 4 c 0.689(9) 0.201(3) 0.25 0.2 1. 0
O2 O2- 4 c 0.211(9) 0.053(4) 0.25 0.3 1. 0
#End of TTdata_24304-ICSD