
#(C) 2017 by FIZ Karlsruhe - Leibniz Institute for Information Infrastructure.  All rights reserved.
data_24321-ICSD
_database_code_ICSD 24321
_audit_creation_date 1980-01-01
_audit_update_record 2005-10-01
_chemical_name_systematic 'Dimanganese divanadate - HT'
_chemical_formula_structural 'Mn2 (V2 O7)'
_chemical_formula_sum 'Mn2 O7 V2'
_chemical_name_structure_type Sc2Si2O7
_exptl_crystal_density_diffrn 3.8
_publ_section_title 'Thortveitite-type structure of Mn2 V2 O7'
loop_
_citation_id
_citation_journal_full
_citation_year
_citation_journal_volume
_citation_page_first
_citation_page_last
_citation_journal_id_ASTM
primary 'Acta Chemica Scandinavica (1-27,1973-42,1988)' 1967 21 590 591 ACSAA4
loop_
_publ_author_name
'Dorm, E.'
'Marinder, B.O.'
_cell_length_a 6.710(2)
_cell_length_b 8.726(2)
_cell_length_c 4.970(1)
_cell_angle_alpha 90.
_cell_angle_beta 103.57(1)
_cell_angle_gamma 90.
_cell_volume 282.88
_cell_formula_units_Z 2
_symmetry_space_group_name_H-M 'C 1 2/m 1'
_symmetry_Int_Tables_number 12
_refine_ls_R_factor_all 0.106
loop_
_symmetry_equiv_pos_site_id
_symmetry_equiv_pos_as_xyz
1 '-x, y, -z'
2 '-x, -y, -z'
3 'x, -y, z'
4 'x, y, z'
5 '-x+1/2, y+1/2, -z'
6 '-x+1/2, -y+1/2, -z'
7 'x+1/2, -y+1/2, z'
8 'x+1/2, y+1/2, z'
loop_
_atom_type_symbol
_atom_type_oxidation_number
Mn2+ 2
V5+ 5
O2- -2
loop_
_atom_site_label
_atom_site_type_symbol
_atom_site_symmetry_multiplicity
_atom_site_Wyckoff_symbol
_atom_site_fract_x
_atom_site_fract_y
_atom_site_fract_z
_atom_site_B_iso_or_equiv
_atom_site_occupancy
_atom_site_attached_hydrogens
Mn1 Mn2+ 4 h 0 0.3114(6) 0.5 -.3 1. 0
V1 V5+ 4 i 0.2354(9) 0 0.902(2) -.1 1. 0
O1 O2- 2 a 0 0 0 2.9 1. 0
O2 O2- 8 j 0.232(3) 0.160(2) 0.713(5) 0.1 1. 0
O3 O2- 4 i 0.409(4) 0 0.213(7) 0.3 1. 0
#End of TTdata_24321-ICSD