
#(C) 2017 by FIZ Karlsruhe - Leibniz Institute for Information Infrastructure.  All rights reserved.
data_24327-ICSD
_database_code_ICSD 24327
_audit_creation_date 1980-01-01
_audit_update_record 2013-02-01
_chemical_name_systematic 'Platinum phosphide (5/2)'
_chemical_formula_structural 'Pt5 P2'
_chemical_formula_sum 'P2 Pt5'
_exptl_crystal_density_diffrn 16.19
_publ_section_title 'The crystal structure of Pt5 P2'
loop_
_citation_id
_citation_journal_full
_citation_year
_citation_journal_volume
_citation_page_first
_citation_page_last
_citation_journal_id_ASTM
primary 'Acta Chemica Scandinavica (1-27,1973-42,1988)' 1967 21 1131 1137 ACSAA4
loop_
_publ_author_name
'Dahl, E.'
_cell_length_a 10.7642(9)
_cell_length_b 5.3854(5)
_cell_length_c 7.4378(8)
_cell_angle_alpha 90.
_cell_angle_beta 99.170(9)
_cell_angle_gamma 90.
_cell_volume 425.66
_cell_formula_units_Z 4
_symmetry_space_group_name_H-M 'C 1 2/c 1'
_symmetry_Int_Tables_number 15
_refine_ls_R_factor_all 0.136
loop_
_symmetry_equiv_pos_site_id
_symmetry_equiv_pos_as_xyz
1 'x, -y, z+1/2'
2 '-x, -y, -z'
3 '-x, y, -z+1/2'
4 'x, y, z'
5 'x+1/2, -y+1/2, z+1/2'
6 '-x+1/2, -y+1/2, -z'
7 '-x+1/2, y+1/2, -z+1/2'
8 'x+1/2, y+1/2, z'
loop_
_atom_type_symbol
_atom_type_oxidation_number
Pt0+ 0
P0+ 0
loop_
_atom_site_label
_atom_site_type_symbol
_atom_site_symmetry_multiplicity
_atom_site_Wyckoff_symbol
_atom_site_fract_x
_atom_site_fract_y
_atom_site_fract_z
_atom_site_B_iso_or_equiv
_atom_site_occupancy
_atom_site_attached_hydrogens
Pt1 Pt0+ 4 e 0 0.1087(9) 0.25 0 1. 0
Pt2 Pt0+ 8 f 0.3811(3) 0.2274(6) 0.0352(4) 0.019 1. 0
Pt3 Pt0+ 8 f 0.1437(2) 0.2253(6) 0.5912(4) 0.038 1. 0
P1 P0+ 8 f 0.8396(15) 0.5898(42) 0.7287(24) -.178 1. 0
#End of TTdata_24327-ICSD