
#(C) 2017 by FIZ Karlsruhe - Leibniz Institute for Information Infrastructure.  All rights reserved.
data_243394-ICSD
_database_code_ICSD 243394
_audit_creation_date 2017-08-01
_chemical_name_systematic 'Iron vanadium dichromate'
_chemical_formula_structural 'Fe Cr2 O4'
_chemical_formula_sum 'Cr2 Fe1 O4'
_chemical_name_structure_type Na2SO4
_exptl_crystal_density_diffrn 5.07
_cell_measurement_temperature 15.
_publ_section_title

;
Suppression of phase transitions at low temperature by chromium substitution
in vanadium spinel Fe(V1-xCrx)2O4
;
loop_
_citation_id
_citation_journal_full
_citation_year
_citation_journal_volume
_citation_page_first
_citation_page_last
_citation_journal_id_ASTM
primary 'Journal of Physics: Condensed Matter' 2016 28 296001-1 296001-8 JCOMEL
loop_
_publ_author_name
'Kawaguchi, S.'
'Ishibashi, H.'
'Nagami, K.'
'Kubota, Y.'
_cell_length_a 8.4576(1)
_cell_length_b 8.4356(1)
_cell_length_c 8.2154(1)
_cell_angle_alpha 90.
_cell_angle_beta 90.
_cell_angle_gamma 90.
_cell_volume 586.13
_cell_formula_units_Z 8
_symmetry_space_group_name_H-M 'F d d d S'
_symmetry_Int_Tables_number 70
_refine_ls_R_factor_all 0.032
loop_
_symmetry_equiv_pos_site_id
_symmetry_equiv_pos_as_xyz
1 'x+1/4, y+1/4, -z+1/4'
2 '-x+1/4, y+1/4, z+1/4'
3 '-x, -y, z'
4 'x, -y, -z'
5 'x+1/4, -y+1/4, z+1/4'
6 '-x+1/4, -y+1/4, -z+1/4'
7 '-x, y, -z'
8 'x, y, z'
9 'x+1/4, y+3/4, -z+3/4'
10 '-x+1/4, y+3/4, z+3/4'
11 '-x, -y+1/2, z+1/2'
12 'x, -y+1/2, -z+1/2'
13 'x+1/4, -y+3/4, z+3/4'
14 '-x+1/4, -y+3/4, -z+3/4'
15 '-x, y+1/2, -z+1/2'
16 'x, y+1/2, z+1/2'
17 'x+3/4, y+1/4, -z+3/4'
18 '-x+3/4, y+1/4, z+3/4'
19 '-x+1/2, -y, z+1/2'
20 'x+1/2, -y, -z+1/2'
21 'x+3/4, -y+1/4, z+3/4'
22 '-x+3/4, -y+1/4, -z+3/4'
23 '-x+1/2, y, -z+1/2'
24 'x+1/2, y, z+1/2'
25 'x+3/4, y+3/4, -z+1/4'
26 '-x+3/4, y+3/4, z+1/4'
27 '-x+1/2, -y+1/2, z'
28 'x+1/2, -y+1/2, -z'
29 'x+3/4, -y+3/4, z+1/4'
30 '-x+3/4, -y+3/4, -z+1/4'
31 '-x+1/2, y+1/2, -z'
32 'x+1/2, y+1/2, z'
loop_
_atom_type_symbol
_atom_type_oxidation_number
Fe2+ 2
Cr3+ 3
O2- -2
loop_
_atom_site_label
_atom_site_type_symbol
_atom_site_symmetry_multiplicity
_atom_site_Wyckoff_symbol
_atom_site_fract_x
_atom_site_fract_y
_atom_site_fract_z
_atom_site_B_iso_or_equiv
_atom_site_occupancy
_atom_site_attached_hydrogens
Fe1 Fe2+ 8 a 0 0 0 . 1. 0
Cr1 Cr3+ 16 d 0.625 0.625 0.625 . 1. 0
O1 O2- 32 h 0.3908(3) 0.3884(3) 0.3824(2) . 1. 0
#End of TTdata_243394-ICSD