
#(C) 2017 by FIZ Karlsruhe - Leibniz Institute for Information Infrastructure.  All rights reserved.
data_24354-ICSD
_database_code_ICSD 24354
_audit_creation_date 1980-01-01
_audit_update_record 2014-02-01
_chemical_name_systematic 'Rhodium silicide (3/4)'
_chemical_formula_structural 'Rh3 Si4'
_chemical_formula_sum 'Rh3 Si4'
_chemical_name_structure_type Rh3Si4
_exptl_crystal_density_diffrn 6.99
_publ_section_title 'The crystal structure of Rh3 Si4'
loop_
_citation_id
_citation_journal_full
_citation_year
_citation_journal_volume
_citation_page_first
_citation_page_last
_citation_journal_id_ASTM
primary 'Acta Chemica Scandinavica (1-27,1973-42,1988)' 1968 22 3120 3126 ACSAA4
loop_
_publ_author_name
'Engstroem, I.'
'Persson, E.'
_cell_length_a 18.810(2)
_cell_length_b 3.614(1)
_cell_length_c 5.813(1)
_cell_angle_alpha 90.
_cell_angle_beta 90.
_cell_angle_gamma 90.
_cell_volume 395.16
_cell_formula_units_Z 4
_symmetry_space_group_name_H-M 'P n m a'
_symmetry_Int_Tables_number 62
_refine_ls_R_factor_all 0.1
loop_
_symmetry_equiv_pos_site_id
_symmetry_equiv_pos_as_xyz
1 'x+1/2, y, -z+1/2'
2 'x, -y+1/2, z'
3 '-x+1/2, y+1/2, z+1/2'
4 '-x, -y, -z'
5 '-x+1/2, -y, z+1/2'
6 '-x, y+1/2, -z'
7 'x+1/2, -y+1/2, -z+1/2'
8 'x, y, z'
loop_
_atom_type_symbol
_atom_type_oxidation_number
Rh0+ 0
Si0+ 0
loop_
_atom_site_label
_atom_site_type_symbol
_atom_site_symmetry_multiplicity
_atom_site_Wyckoff_symbol
_atom_site_fract_x
_atom_site_fract_y
_atom_site_fract_z
_atom_site_B_iso_or_equiv
_atom_site_occupancy
_atom_site_attached_hydrogens
Rh1 Rh0+ 4 c 0.03206(11) 0.25 0.18556(37) 0.27 1. 0
Rh2 Rh0+ 4 c 0.17634(11) 0.25 0.00325(33) 0.22 1. 0
Rh3 Rh0+ 4 c 0.32534(11) 0.25 0.11571(33) 0.19 1. 0
Si1 Si0+ 4 c 0.14372(49) 0.25 0.3871(15) 0.39 1. 0
Si2 Si0+ 4 c 0.23145(41) 0.75 0.2195(13) 0.2 1. 0
Si3 Si0+ 4 c 0.40930(48) 0.25 0.4296(15) 0.33 1. 0
Si4 Si0+ 4 c 0.04870(48) 0.75 0.4806(15) 0.23 1. 0
#End of TTdata_24354-ICSD