
#(C) 2017 by FIZ Karlsruhe - Leibniz Institute for Information Infrastructure.  All rights reserved.
data_24366-ICSD
_database_code_ICSD 24366
_audit_creation_date 1981-12-31
_chemical_name_systematic 'Barium iodide - I'
_chemical_formula_structural 'Ba I2'
_chemical_formula_sum 'Ba1 I2'
_chemical_name_structure_type PbCl2
_exptl_crystal_density_diffrn 5.15
_publ_section_title 'Zur Hochdruckpolymorphie von Ba I2'
loop_
_citation_id
_citation_journal_full
_citation_year
_citation_journal_volume
_citation_page_first
_citation_page_last
_citation_journal_id_ASTM
primary

;
Zeitschrift fuer Naturforschung, Teil B. Anorganische Chemie, Organische
Chemie (33,1978-41,1986)
; 1981 36 1255 1260 ZNBAD2
loop_
_publ_author_name
'Beck, H.P.'
_cell_length_a 10.685(3)
_cell_length_b 8.904(3)
_cell_length_c 5.298(2)
_cell_angle_alpha 90.
_cell_angle_beta 90.
_cell_angle_gamma 90.
_cell_volume 504.05
_cell_formula_units_Z 4
_symmetry_space_group_name_H-M 'P b n m'
_symmetry_Int_Tables_number 62
loop_
_symmetry_equiv_pos_site_id
_symmetry_equiv_pos_as_xyz
1 '-x+1/2, y+1/2, z'
2 'x, y, -z+1/2'
3 'x+1/2, -y+1/2, z+1/2'
4 '-x, -y, -z'
5 'x+1/2, -y+1/2, -z'
6 '-x, -y, z+1/2'
7 '-x+1/2, y+1/2, -z+1/2'
8 'x, y, z'
loop_
_atom_type_symbol
_atom_type_oxidation_number
Ba2+ 2
I1- -1
loop_
_atom_site_label
_atom_site_type_symbol
_atom_site_symmetry_multiplicity
_atom_site_Wyckoff_symbol
_atom_site_fract_x
_atom_site_fract_y
_atom_site_fract_z
_atom_site_B_iso_or_equiv
_atom_site_occupancy
_atom_site_attached_hydrogens
Ba1 Ba2+ 4 c 0.1215 0.2366 0.25 . 1. 0
I1 I1- 4 c 0.4265 0.1393 0.25 . 1. 0
I2 I1- 4 c -.1613 0.029 0.25 . 1. 0
#End of TTdata_24366-ICSD