
data_24372-ICSD
_database_code_ICSD 24372
_audit_creation_date 1981-12-31
_audit_update_record 2010-02-01
_chemical_name_systematic 'Copper(I) thiocyanate - beta, HT'
_chemical_formula_structural 'Cu (N C S)'
_chemical_formula_sum 'C1 Cu1 N1 S1'
_exptl_crystal_density_diffrn 2.86
_cell_length_a 3.856(1)
_cell_length_b 3.856(1)
_cell_length_c 32.905(4)
_cell_angle_alpha 90.
_cell_angle_beta 90.
_cell_angle_gamma 120.
_cell_volume 423.71
_cell_formula_units_Z 6
_symmetry_space_group_name_H-M 'R 3 m H'
_symmetry_Int_Tables_number 160
_refine_ls_R_factor_all 0.016
loop_
_symmetry_equiv_pos_site_id
_symmetry_equiv_pos_as_xyz
1 '-x+y, y, z'
2 'x, x-y, z'
3 '-y, -x, z'
4 '-x+y, -x, z'
5 '-y, x-y, z'
6 'x, y, z'
7 '-x+y+2/3, y+1/3, z+1/3'
8 'x+2/3, x-y+1/3, z+1/3'
9 '-y+2/3, -x+1/3, z+1/3'
10 '-x+y+2/3, -x+1/3, z+1/3'
11 '-y+2/3, x-y+1/3, z+1/3'
12 'x+2/3, y+1/3, z+1/3'
13 '-x+y+1/3, y+2/3, z+2/3'
14 'x+1/3, x-y+2/3, z+2/3'
15 '-y+1/3, -x+2/3, z+2/3'
16 '-x+y+1/3, -x+2/3, z+2/3'
17 '-y+1/3, x-y+2/3, z+2/3'
18 'x+1/3, y+2/3, z+2/3'
loop_
_atom_type_symbol
_atom_type_oxidation_number
Cu1+ 1
N3- -3
C4+ 4
S2- -2
loop_
_atom_site_label
_atom_site_type_symbol
_atom_site_symmetry_multiplicity
_atom_site_Wyckoff_symbol
_atom_site_fract_x
_atom_site_fract_y
_atom_site_fract_z
_atom_site_B_iso_or_equiv
_atom_site_occupancy
_atom_site_attached_hydrogens
Cu1 Cu1+ 3 a 0 0 0 . 1. 0
Cu2 Cu1+ 3 a 0 0 0.5 . 1. 0
N1 N3- 3 a 0 0 0.05845(17) . 1. 0
N2 N3- 3 a 0 0 0.55845(17) . 1. 0
C1 C4+ 3 a 0 0 0.09337(17) . 1. 0
C2 C4+ 3 a 0 0 0.59337(17) . 1. 0
S1 S2- 3 a 0 0 0.14452(4) . 1. 0
S2 S2- 3 a 0 0 0.64452(4) . 1. 0
loop_
_atom_site_aniso_label
_atom_site_aniso_type_symbol
_atom_site_aniso_B_11
_atom_site_aniso_B_22
_atom_site_aniso_B_33
_atom_site_aniso_B_12
_atom_site_aniso_B_13
_atom_site_aniso_B_23
Cu1 Cu1+ 2.69(3) 2.69(3) 1.22(2) 1.35(2) 0 0
Cu2 Cu1+ 2.69(3) 2.69(3) 1.22(2) 1.35(2) 0 0
N1 N3- 3.1(3) 3.1(3) 1.6(2) 1.5(1) 0 0
N2 N3- 3.1(3) 3.1(3) 1.6(2) 1.5(1) 0 0
C1 C4+ 1.4(2) 1.4(2) 1.9(2) 0.7(1) 0 0
C2 C4+ 1.4(2) 1.4(2) 1.9(2) 0.7(1) 0 0
S1 S2- 1.51(5) 1.51(5) 1.15(4) 0.75(2) 0 0
S2 S2- 1.51(5) 1.51(5) 1.15(4) 0.75(2) 0 0
