
#(C) 2017 by FIZ Karlsruhe - Leibniz Institute for Information Infrastructure.  All rights reserved.
data_243723-ICSD
_database_code_ICSD 243723
_audit_creation_date 2017-08-01
_chemical_name_systematic 'Iron antimony dioxide difluoride'
_chemical_formula_structural 'Fe Sb O2 F2'
_chemical_formula_sum 'F2 Fe1 O2 Sb1'
_chemical_name_structure_type HgMoO4
_exptl_crystal_density_diffrn 5.21
_cell_measurement_temperature 293.
_publ_section_title

;
Hydrothermal synthesis of the oxofluoride FeSbO2F2-An anti-ferromagnetic spin
S = 5/2 compound
;
loop_
_citation_id
_citation_journal_full
_citation_year
_citation_journal_volume
_citation_page_first
_citation_page_last
_citation_journal_id_ASTM
primary 'Inorganic Chemistry' 2017 56 4662 4667 INOCAJ
loop_
_publ_author_name
'Ali, Sk Imran'
'Kremer, Reinhard K.'
'Johnsson, Mats'
_cell_length_a 11.9129(15)
_cell_length_b 4.9605(5)
_cell_length_c 5.5000(6)
_cell_angle_alpha 90
_cell_angle_beta 103.897(7)
_cell_angle_gamma 90
_cell_volume 315.5
_cell_formula_units_Z 4
_symmetry_space_group_name_H-M 'C 1 2/c 1'
_symmetry_Int_Tables_number 15
_refine_ls_R_factor_all 0.043
loop_
_symmetry_equiv_pos_site_id
_symmetry_equiv_pos_as_xyz
1 'x, -y, z+1/2'
2 '-x, -y, -z'
3 '-x, y, -z+1/2'
4 'x, y, z'
5 'x+1/2, -y+1/2, z+1/2'
6 '-x+1/2, -y+1/2, -z'
7 '-x+1/2, y+1/2, -z+1/2'
8 'x+1/2, y+1/2, z'
loop_
_atom_type_symbol
_atom_type_oxidation_number
Sb3+ 3
Fe3+ 3
F1- -1
O2- -2
loop_
_atom_site_label
_atom_site_type_symbol
_atom_site_symmetry_multiplicity
_atom_site_Wyckoff_symbol
_atom_site_fract_x
_atom_site_fract_y
_atom_site_fract_z
_atom_site_B_iso_or_equiv
_atom_site_occupancy
_atom_site_attached_hydrogens
Sb1 Sb3+ 4 e 0 0.18497(13) 0.25 0.0121(2) 1 0
Fe1 Fe3+ 4 c 0.25 0.25 0 0.0100(4) 1 0
F1 F1- 8 f 0.1964(4) 0.5474(10) 0.1829(9) 0.0153(12) 1 0
O1 O2- 8 f 0.0979(5) 0.0879(12) -0.0325(10) 0.0131(14) 1 0
loop_
_atom_site_aniso_label
_atom_site_aniso_type_symbol
_atom_site_aniso_U_11
_atom_site_aniso_U_22
_atom_site_aniso_U_33
_atom_site_aniso_U_12
_atom_site_aniso_U_13
_atom_site_aniso_U_23
Sb1 Sb3+ 0.0122(4) 0.0106(3) 0.0121(3) 0 0.0003(2) 0
Fe1 Fe3+ 0.0104(7) 0.0092(6) 0.0100(6) -0.0006(4) 0.0018(5) 0.0005(4)
F1 F1- 0.015(2) 0.012(2) 0.0163(19) 0.0015(16) -0.0009(17) -0.0038(15)
O1 O2- 0.008(2) 0.017(3) 0.013(2) -0.0028(18) -0.0008(17) -0.0009(18)
#End of TTdata_243723-ICSD