
#(C) 2017 by FIZ Karlsruhe - Leibniz Institute for Information Infrastructure.  All rights reserved.
data_245328-ICSD
_database_code_ICSD 245328
_audit_creation_date 2008-02-01
_chemical_name_systematic 'Aluminium pentapalladium'
_chemical_formula_structural 'Al Pd5'
_chemical_formula_sum 'Al1 Pd5'
_exptl_crystal_density_diffrn 10.72
_publ_section_title 'Iodine-promoted synthesis of structurally ordered Al Pd5'
loop_
_citation_id
_citation_journal_full
_citation_year
_citation_journal_volume
_citation_page_first
_citation_page_last
_citation_journal_id_ASTM
primary 'Zeitschrift fuer Anorganische und Allgemeine Chemie (1950) (DE)' 2007
633 1397 1402 ZAACAB
loop_
_publ_author_name
'Wannek, C.'
'Harbrecht, B.'
_cell_length_a 10.7180(2)
_cell_length_b 3.9991(1)
_cell_length_c 8.0839(2)
_cell_angle_alpha 90.
_cell_angle_beta 90.
_cell_angle_gamma 90.
_cell_volume 346.49
_cell_formula_units_Z 4
_symmetry_space_group_name_H-M 'P n m a'
_symmetry_Int_Tables_number 62
_refine_ls_R_factor_all 0.019
loop_
_symmetry_equiv_pos_site_id
_symmetry_equiv_pos_as_xyz
1 'x+1/2, y, -z+1/2'
2 'x, -y+1/2, z'
3 '-x+1/2, y+1/2, z+1/2'
4 '-x, -y, -z'
5 '-x+1/2, -y, z+1/2'
6 '-x, y+1/2, -z'
7 'x+1/2, -y+1/2, -z+1/2'
8 'x, y, z'
loop_
_atom_type_symbol
_atom_type_oxidation_number
Al0+ 0
Pd0+ 0
loop_
_atom_site_label
_atom_site_type_symbol
_atom_site_symmetry_multiplicity
_atom_site_Wyckoff_symbol
_atom_site_fract_x
_atom_site_fract_y
_atom_site_fract_z
_atom_site_B_iso_or_equiv
_atom_site_occupancy
_atom_site_attached_hydrogens
Al1 Al0+ 4 c 0.0777(12) 0.25 0.8890(14) 0.4(2) 1. 0
Pd1 Pd0+ 4 c 0.2963(4) 0.25 0.2147(4) 1.72(10) 1. 0
Pd2 Pd0+ 4 c 0.0422(3) 0.25 0.2192(4) 0.90(8) 1. 0
Pd3 Pd0+ 4 c 0.3360(3) 0.25 0.5437(4) 0.96(9) 1. 0
Pd4 Pd0+ 4 c 0.0707(4) 0.25 0.5722(4) 0.89(7) 1. 0
Pd5 Pd0+ 4 c 0.3156(4) 0.25 0.8830(4) 0.46(8) 1. 0
#End of TTdata_245328-ICSD