
#(C) 2017 by FIZ Karlsruhe - Leibniz Institute for Information Infrastructure.  All rights reserved.
data_245667-ICSD
_database_code_ICSD 245667
_audit_creation_date 2008-08-01
_chemical_name_systematic 'Caesium iron bis(sulfate)'
_chemical_formula_structural 'Cs Fe (S O4)2'
_chemical_formula_sum 'Cs1 Fe1 O8 S2'
_chemical_name_structure_type CsV(SO4)2
_exptl_crystal_density_diffrn 3.47
_cell_measurement_temperature 293.
_publ_section_title

;
Neutron powder diffraction experiments on the layered triangular-lattice
antiferromagnets Rb Fe (Mo O4)2 and Cs Fe (Mo O4)2
;
loop_
_citation_id
_citation_journal_full
_citation_year
_citation_journal_volume
_citation_page_first
_citation_page_last
_citation_journal_id_ASTM
primary 'Journal of Solid State Chemistry' 2007 180 2075 2079 JSSCBI
loop_
_publ_author_name
'Inami, T.'
_cell_length_a 4.8912(6)
_cell_length_b 4.8912(6)
_cell_length_c 8.798(1)
_cell_angle_alpha 90.
_cell_angle_beta 90.
_cell_angle_gamma 120.
_cell_volume 182.28
_cell_formula_units_Z 1
_symmetry_space_group_name_H-M 'P -3'
_symmetry_Int_Tables_number 147
_refine_ls_R_factor_all 0.0186
loop_
_symmetry_equiv_pos_site_id
_symmetry_equiv_pos_as_xyz
1 'x-y, x, -z'
2 'y, -x+y, -z'
3 '-x, -y, -z'
4 '-x+y, -x, z'
5 '-y, x-y, z'
6 'x, y, z'
loop_
_atom_type_symbol
_atom_type_oxidation_number
Cs1+ 1
Fe3+ 3
S6+ 6
O2- -2
loop_
_atom_site_label
_atom_site_type_symbol
_atom_site_symmetry_multiplicity
_atom_site_Wyckoff_symbol
_atom_site_fract_x
_atom_site_fract_y
_atom_site_fract_z
_atom_site_B_iso_or_equiv
_atom_site_occupancy
_atom_site_attached_hydrogens
Cs1 Cs1+ 1 b 0 0 0.5 . 1. 0
Fe1 Fe3+ 1 a 0 0 0 . 1. 0
S1 S6+ 2 d 0.33333 0.66667 0.18(1) . 1. 0
O1 O2- 2 d 0.33333 0.66667 0.350(6) . 1. 0
O2 O2- 6 g 0.100(4) 0.366(6) 0.133(3) . 1. 0
#End of TTdata_245667-ICSD