
#(C) 2017 by FIZ Karlsruhe - Leibniz Institute for Information Infrastructure.  All rights reserved.
data_24684-ICSD
_database_code_ICSD 24684
_audit_creation_date 1980-01-01
_audit_update_record 2011-02-01
_chemical_name_systematic 'Potassium dihydrogenphosphate(V) - LT'
_chemical_formula_structural 'K (H2 P O4)'
_chemical_formula_sum 'H2 K1 O4 P1'
_chemical_name_structure_type KH2PO4(LT)
_exptl_crystal_density_diffrn 2.38
_cell_measurement_temperature 116.
_publ_section_title
'X-ray analysis of the ferroelectric transition in K H2 P O4'
loop_
_citation_id
_citation_journal_full
_citation_year
_citation_journal_volume
_citation_page_first
_citation_page_last
_citation_journal_id_ASTM
primary 'Acta Crystallographica (1,1948-23,1967)' 1953 6 273 285 ACCRA9
loop_
_publ_author_name
'Frazer, B.C.'
'Pepinsky, R.'
_cell_length_a 10.53
_cell_length_b 10.44
_cell_length_c 6.9
_cell_angle_alpha 90.
_cell_angle_beta 90.
_cell_angle_gamma 90.
_cell_volume 758.54
_cell_formula_units_Z 8
_symmetry_space_group_name_H-M 'F d d 2'
_symmetry_Int_Tables_number 43
_refine_ls_R_factor_all 0.12
loop_
_symmetry_equiv_pos_site_id
_symmetry_equiv_pos_as_xyz
1 'x+1/4, -y+1/4, z+1/4'
2 '-x+1/4, y+1/4, z+1/4'
3 '-x, -y, z'
4 'x, y, z'
5 'x+1/4, -y+3/4, z+3/4'
6 '-x+1/4, y+3/4, z+3/4'
7 '-x, -y+1/2, z+1/2'
8 'x, y+1/2, z+1/2'
9 'x+3/4, -y+1/4, z+3/4'
10 '-x+3/4, y+1/4, z+3/4'
11 '-x+1/2, -y, z+1/2'
12 'x+1/2, y, z+1/2'
13 'x+3/4, -y+3/4, z+1/4'
14 '-x+3/4, y+3/4, z+1/4'
15 '-x+1/2, -y+1/2, z'
16 'x+1/2, y+1/2, z'
loop_
_atom_type_symbol
_atom_type_oxidation_number
K1+ 1
P5+ 5
O2- -2
H1+ 1
loop_
_atom_site_label
_atom_site_type_symbol
_atom_site_symmetry_multiplicity
_atom_site_Wyckoff_symbol
_atom_site_fract_x
_atom_site_fract_y
_atom_site_fract_z
_atom_site_B_iso_or_equiv
_atom_site_occupancy
_atom_site_attached_hydrogens
K1 K1+ 8 a 0.25 0.25 0.512 0.45 1. 0
P1 P5+ 8 a 0.25 0.25 0 0.39 1. 0
O1 O2- 16 b 0.366 0.285 0.136 0.47 1. 0
O2 O2- 16 b 0.215 0.366 -.124 0.47 1. 0
#End of TTdata_24684-ICSD