
#(C) 2017 by FIZ Karlsruhe - Leibniz Institute for Information Infrastructure.  All rights reserved.
data_24733-ICSD
_database_code_ICSD 24733
_audit_creation_date 1980-01-01
_audit_update_record 2007-08-01
_chemical_name_systematic 'Lead dibismuth diniobium oxide'
_chemical_formula_structural 'Pb Bi2 Nb2 O9'
_chemical_formula_sum 'Bi2 Nb2 O9 Pb1'
_exptl_crystal_density_diffrn 8.22
_publ_section_title

;
Mixed bismuth oxides with layer lattices. I. The structure type of Ca Nb2 Bi2
O9
;
loop_
_citation_id
_citation_journal_full
_citation_year
_citation_journal_volume
_citation_page_first
_citation_page_last
_citation_journal_id_ASTM
primary 'Arkiv foer Kemi' 1949 1 463 480 ARKEAD
loop_
_publ_author_name
'Aurivillius, B.'
_cell_length_a 5.492
_cell_length_b 5.503
_cell_length_c 25.53
_cell_angle_alpha 90.
_cell_angle_beta 90.
_cell_angle_gamma 90.
_cell_volume 771.58
_cell_formula_units_Z 4
_symmetry_space_group_name_H-M 'F 2 2 2'
_symmetry_Int_Tables_number 22
loop_
_symmetry_equiv_pos_site_id
_symmetry_equiv_pos_as_xyz
1 '-x, y, -z'
2 'x, -y, -z'
3 '-x, -y, z'
4 'x, y, z'
5 '-x, y+1/2, -z+1/2'
6 'x, -y+1/2, -z+1/2'
7 '-x, -y+1/2, z+1/2'
8 'x, y+1/2, z+1/2'
9 '-x+1/2, y, -z+1/2'
10 'x+1/2, -y, -z+1/2'
11 '-x+1/2, -y, z+1/2'
12 'x+1/2, y, z+1/2'
13 '-x+1/2, y+1/2, -z'
14 'x+1/2, -y+1/2, -z'
15 '-x+1/2, -y+1/2, z'
16 'x+1/2, y+1/2, z'
loop_
_atom_type_symbol
_atom_type_oxidation_number
Pb2+ 2
Bi3+ 3
Nb5+ 5
O2- -2
loop_
_atom_site_label
_atom_site_type_symbol
_atom_site_symmetry_multiplicity
_atom_site_Wyckoff_symbol
_atom_site_fract_x
_atom_site_fract_y
_atom_site_fract_z
_atom_site_B_iso_or_equiv
_atom_site_occupancy
_atom_site_attached_hydrogens
Pb1 Pb2+ 4 a 0 0 0 . 1. 0
Bi1 Bi3+ 8 g 0 0 0.202(2) . 1. 0
Nb1 Nb5+ 8 g 0 0 0.412(4) . 1. 0
O1 O2- 4 b 0 0 0.5 . 1. 0
O2 O2- 4 c 0.25 0.25 0.25 . 1. 0
O3 O2- 4 d 0.25 0.25 0.75 . 1. 0
O4 O2- 8 g 0 0 0.324 . 1. 0
O5 O2- 8 h 0.25 0.25 0.088 . 1. 0
O6 O2- 8 h 0.25 0.25 -.088 . 1. 0
#End of TTdata_24733-ICSD