
#(C) 2017 by FIZ Karlsruhe - Leibniz Institute for Information Infrastructure.  All rights reserved.
data_24755-ICSD
_database_code_ICSD 24755
_audit_creation_date 1980-01-01
_audit_update_record 2012-02-01
_chemical_name_systematic 'Niobium(IV) sulfide'
_chemical_formula_structural 'Nb S2'
_chemical_formula_sum 'Nb1 S2'
_chemical_name_structure_type CdCl2(3R)
_exptl_crystal_density_diffrn 4.57
_publ_section_title
'X-ray studies of sulfides of titanium, zirconium, niobium, and tantalum'
loop_
_citation_id
_citation_journal_full
_citation_year
_citation_journal_volume
_citation_page_first
_citation_page_last
_citation_journal_id_ASTM
primary 'Arkiv foer Kemi' 1954 7 371 380 ARKEAD
loop_
_publ_author_name
'Haegg, G.'
'Schoenberg, N.'
_cell_length_a 6.24
_cell_length_b 6.24
_cell_length_c 6.24
_cell_angle_alpha 30.95
_cell_angle_beta 30.95
_cell_angle_gamma 30.95
_cell_volume 57.01
_cell_formula_units_Z 1
_symmetry_space_group_name_H-M 'R -3 m R'
_symmetry_Int_Tables_number 166
loop_
_symmetry_equiv_pos_site_id
_symmetry_equiv_pos_as_xyz
1 '-z, -y, -x'
2 '-z, -x, -y'
3 '-x, -z, -y'
4 '-y, -z, -x'
5 '-y, -x, -z'
6 '-x, -y, -z'
7 'z, y, x'
8 'z, x, y'
9 'x, z, y'
10 'y, z, x'
11 'y, x, z'
12 'x, y, z'
loop_
_atom_type_symbol
_atom_type_oxidation_number
Nb4+ 4
S2- -2
loop_
_atom_site_label
_atom_site_type_symbol
_atom_site_symmetry_multiplicity
_atom_site_Wyckoff_symbol
_atom_site_fract_x
_atom_site_fract_y
_atom_site_fract_z
_atom_site_B_iso_or_equiv
_atom_site_occupancy
_atom_site_attached_hydrogens
Nb1 Nb4+ 1 a 0 0 0 . 1. 0
S1 S2- 2 c 0.25 0.25 0.25 . 1. 0
#End of TTdata_24755-ICSD