
#(C) 2017 by FIZ Karlsruhe - Leibniz Institute for Information Infrastructure.  All rights reserved.
data_247774-ICSD
_database_code_ICSD 247774
_audit_creation_date 2013-08-01
_chemical_name_systematic 'Palladium manganese (2/1)'
_chemical_formula_structural 'Pd2 Mn'
_chemical_formula_sum 'Mn1 Pd2'
_chemical_name_structure_type Co2Si
_exptl_crystal_density_diffrn 9.83
_cell_measurement_temperature 293.
_publ_section_title

;
X - ray diffraction study of the ordered structures and phase relation in
Pd-Mn alloy system
;
loop_
_citation_id
_citation_journal_full
_citation_year
_citation_journal_volume
_citation_page_first
_citation_page_last
_citation_journal_id_ASTM
primary 'Materials Transactions, JPN' 2011 52 374 379 MTARCE
loop_
_publ_author_name
'Yin, Suo'
'Takahashi, Miwako'
'Miida, Rokuro'
'Iwasaki, Hiroshi'
'Ohshima, Ken-ichi'
_cell_length_a 5.473
_cell_length_b 4.055
_cell_length_c 8.151
_cell_angle_alpha 90.
_cell_angle_beta 90.
_cell_angle_gamma 90.
_cell_volume 180.9
_cell_formula_units_Z 4
_symmetry_space_group_name_H-M 'P n m a'
_symmetry_Int_Tables_number 62
_refine_ls_R_factor_all 0.0337
loop_
_symmetry_equiv_pos_site_id
_symmetry_equiv_pos_as_xyz
1 'x+1/2, y, -z+1/2'
2 'x, -y+1/2, z'
3 '-x+1/2, y+1/2, z+1/2'
4 '-x, -y, -z'
5 '-x+1/2, -y, z+1/2'
6 '-x, y+1/2, -z'
7 'x+1/2, -y+1/2, -z+1/2'
8 'x, y, z'
loop_
_atom_type_symbol
_atom_type_oxidation_number
Mn0+ 0
Pd0+ 0
loop_
_atom_site_label
_atom_site_type_symbol
_atom_site_symmetry_multiplicity
_atom_site_Wyckoff_symbol
_atom_site_fract_x
_atom_site_fract_y
_atom_site_fract_z
_atom_site_B_iso_or_equiv
_atom_site_occupancy
_atom_site_attached_hydrogens
Mn1 Mn0+ 4 c 0.093 0.25 0.072 0.2038 1. 0
Pd1 Pd0+ 4 c 0.113 0.25 0.407 0.2312 1. 0
Pd2 Pd0+ 4 c 0.162 0.25 0.746 0.2117 1. 0
#End of TTdata_247774-ICSD