
#(C) 2017 by FIZ Karlsruhe - Leibniz Institute for Information Infrastructure.  All rights reserved.
data_247984-ICSD
_database_code_ICSD 247984
_audit_creation_date 2014-08-01
_chemical_name_systematic 'Barium rhodium silicide (1/2/9)'
_chemical_formula_structural 'Ba Rh2 Si9'
_chemical_formula_sum 'Ba1 Rh2 Si9'
_exptl_crystal_density_diffrn 4.74
_publ_section_title
'BaRh2Si9 - a new clathrate with a rhodium-silicon framework'
loop_
_citation_id
_citation_journal_full
_citation_year
_citation_journal_volume
_citation_page_first
_citation_page_last
_citation_journal_id_ASTM
primary 'Dalton Transactions' 2014 43 2140 2146 DTARAF
loop_
_publ_author_name
'Jung, Walter'
'Ormeci, Alim'
'Schnelle, Walter'
'Nguyen, Hong Duong'
'Baitinger, Michael'
'Grin, Yuri'
_cell_length_a 6.2221(5)
_cell_length_b 21.399(2)
_cell_length_c 6.2272(5)
_cell_angle_alpha 90
_cell_angle_beta 90.306(7)
_cell_angle_gamma 90
_cell_volume 829.12
_cell_formula_units_Z 4
_symmetry_space_group_name_H-M 'C 1 2/c 1'
_symmetry_Int_Tables_number 15
_refine_ls_R_factor_all 0.0457
loop_
_symmetry_equiv_pos_site_id
_symmetry_equiv_pos_as_xyz
1 'x, -y, z+1/2'
2 '-x, -y, -z'
3 '-x, y, -z+1/2'
4 'x, y, z'
5 'x+1/2, -y+1/2, z+1/2'
6 '-x+1/2, -y+1/2, -z'
7 '-x+1/2, y+1/2, -z+1/2'
8 'x+1/2, y+1/2, z'
loop_
_atom_type_symbol
_atom_type_oxidation_number
Ba0+ 0
Rh0+ 0
Si0+ 0
loop_
_atom_site_label
_atom_site_type_symbol
_atom_site_symmetry_multiplicity
_atom_site_Wyckoff_symbol
_atom_site_fract_x
_atom_site_fract_y
_atom_site_fract_z
_atom_site_B_iso_or_equiv
_atom_site_occupancy
_atom_site_attached_hydrogens
Ba1 Ba0+ 4 e 0 0.68717(6) 0.25 0.0124(4) 1. 0
Rh1 Rh0+ 4 e 0 0.06959(7) 0.25 0.0060(1) 1. 0
Rh2 Rh0+ 4 e 0 0.43173(7) 0.25 0.0069(4) 1. 0
Si1 Si0+ 8 f -0.0004(6) 0.1603(2) 0.0241(6) 0.0093(10) 1. 0
Si2 Si0+ 8 f 0.2266(6) 0.3410(2) 0.2534(6) 0.0091(10) 1. 0
Si3 Si0+ 8 f 0.3714(6) 0.4556(2) 0.1100(6) 0.0092(10) 1. 0
Si4 Si0+ 8 f 0.3721(6) 0.0445(2) 0.3889(6) 0.0101(10) 1. 0
Si5 Si0+ 4 e 0 0.2505(3) 0.25 0.0092(13) 1. 0
loop_
_atom_site_aniso_label
_atom_site_aniso_type_symbol
_atom_site_aniso_U_11
_atom_site_aniso_U_22
_atom_site_aniso_U_33
_atom_site_aniso_U_12
_atom_site_aniso_U_13
_atom_site_aniso_U_23
Ba1 Ba0+ 0.0118(6) 0.0146(6) 0.0107(6) 0. 0.0009(4) 0.
Rh1 Rh0+ 0.0069(6) 0.0062(7) 0.0049(6) 0. 0.0006(5) 0.
Rh2 Rh0+ 0.0068(6) 0.0069(6) 0.0070(6) 0. 0.0006(5) 0.
Si1 Si0+ 0.0100(20) 0.0080(20) 0.0100(20) 0.0010(14) 0.0021(14) -0.0007(14)
Si2 Si0+ 0.0070(20) 0.0110(20) 0.0100(20) -0.0006(14) 0.0002(13) 0.0005(14)
Si3 Si0+ 0.0100(20) 0.0100(20) 0.0070(20) 0.0018(14) 0.0013(13) 0.0004(13)
Si4 Si0+ 0.0100(20) 0.0100(20) 0.0100(20) -0.0011(14) 0.0000(13) 0.0008(14)
Si5 Si0+ 0.0090(20) 0.0080(20) 0.0100(20) 0. 0.0000(20) 0.
#End of TTdata_247984-ICSD