
#(C) 2017 by FIZ Karlsruhe - Leibniz Institute for Information Infrastructure.  All rights reserved.
data_24794-ICSD
_database_code_ICSD 24794
_audit_creation_date 1980-01-01
_audit_update_record 2007-04-01
_chemical_name_systematic 'Dichromium tellurate'
_chemical_formula_structural 'Cr2 (Te O6)'
_chemical_formula_sum 'Cr2 O6 Te1'
_chemical_name_structure_type ZnSb2O6
_exptl_crystal_density_diffrn 5.84
_publ_section_title

;
Magnetic structures of the ordered trirutiles Cr2 W O6, Cr2 Te O6 and Fe2 Te
O6
;
loop_
_citation_id
_citation_journal_full
_citation_year
_citation_journal_volume
_citation_page_first
_citation_page_last
_citation_journal_id_ASTM
primary 'Journal of Physics and Chemistry of Solids' 1968 29 1359 1364 JPCSAW
loop_
_publ_author_name
'Kunnmann, W.'
'la Placa, S.J.'
'Corliss, L.M.'
'Hastings, J.M.'
'Banks, E.'
_cell_length_a 4.546(2)
_cell_length_b 4.546(2)
_cell_length_c 9.0140(3)
_cell_angle_alpha 90.
_cell_angle_beta 90.
_cell_angle_gamma 90.
_cell_volume 186.28
_cell_formula_units_Z 2
_symmetry_space_group_name_H-M 'P 42/m n m'
_symmetry_Int_Tables_number 136
_refine_ls_R_factor_all 0.028
loop_
_symmetry_equiv_pos_site_id
_symmetry_equiv_pos_as_xyz
1 '-y+1/2, x+1/2, -z+1/2'
2 'y+1/2, -x+1/2, -z+1/2'
3 'y, x, -z'
4 '-y, -x, -z'
5 'y+1/2, -x+1/2, z+1/2'
6 '-y+1/2, x+1/2, z+1/2'
7 '-y, -x, z'
8 'y, x, z'
9 'x+1/2, -y+1/2, -z+1/2'
10 '-x+1/2, y+1/2, -z+1/2'
11 'x, y, -z'
12 '-x, -y, -z'
13 '-x+1/2, y+1/2, z+1/2'
14 'x+1/2, -y+1/2, z+1/2'
15 '-x, -y, z'
16 'x, y, z'
loop_
_atom_type_symbol
_atom_type_oxidation_number
Cr3+ 3
Te6+ 6
O2- -2
loop_
_atom_site_label
_atom_site_type_symbol
_atom_site_symmetry_multiplicity
_atom_site_Wyckoff_symbol
_atom_site_fract_x
_atom_site_fract_y
_atom_site_fract_z
_atom_site_B_iso_or_equiv
_atom_site_occupancy
_atom_site_attached_hydrogens
Cr1 Cr3+ 4 e 0 0 0.3345(5) . 1. 0
Te1 Te6+ 2 a 0 0 0 . 1. 0
O1 O2- 4 f 0.3010(8) 0.3010(8) 0 . 1. 0
O2 O2- 8 j 0.3100(8) 0.3100(8) 0.3370(5) . 1. 0
#End of TTdata_24794-ICSD