
#(C) 2017 by FIZ Karlsruhe - Leibniz Institute for Information Infrastructure.  All rights reserved.
data_24860-ICSD
_database_code_ICSD 24860
_audit_creation_date 1980-01-01
_chemical_name_systematic 'Molybdenum oxide dichloride hydrate'
_chemical_formula_structural 'Mo O2 Cl2 H2 O'
_chemical_formula_sum 'H2 Cl2 Mo1 O3'
_exptl_crystal_density_diffrn 2.89
_publ_section_title
'Crystal Structure of a New Mo(IV) Dioxo Complex, Mo O2 Cl2 H2 O'
loop_
_citation_id
_citation_journal_full
_citation_year
_citation_journal_volume
_citation_page_first
_citation_page_last
_citation_journal_id_ASTM
primary 'Zhurnal Strukturnoi Khimii (Issue-No. from 1981)' 1971 12 732 734
ZSTKAI
loop_
_publ_author_name
'Atovmyan, L.O.'
'Aliev, Z.G.'
_cell_length_a 9.16(1)
_cell_length_b 3.94(2)
_cell_length_c 6.91(1)
_cell_angle_alpha 90.
_cell_angle_beta 90.
_cell_angle_gamma 90.
_cell_volume 249.38
_cell_formula_units_Z 2
_symmetry_space_group_name_H-M 'P m n 21'
_symmetry_Int_Tables_number 31
_refine_ls_R_factor_all 0.108
loop_
_symmetry_equiv_pos_site_id
_symmetry_equiv_pos_as_xyz
1 'x+1/2, -y, z+1/2'
2 '-x+1/2, -y, z+1/2'
3 '-x, y, z'
4 'x, y, z'
loop_
_atom_type_symbol
_atom_type_oxidation_number
Mo6+ 6
Cl1- -1
O2- -2
H1+ 1
loop_
_atom_site_label
_atom_site_type_symbol
_atom_site_symmetry_multiplicity
_atom_site_Wyckoff_symbol
_atom_site_fract_x
_atom_site_fract_y
_atom_site_fract_z
_atom_site_B_iso_or_equiv
_atom_site_occupancy
_atom_site_attached_hydrogens
Mo1 Mo6+ 2 a 0 0.318 0 1.88 1. 0
Cl1 Cl1- 4 b 0.248 0.227 0.055 1.56 1. 0
O1 O2- 2 a 0 0.266 0.325 2.25 1. 0
O2 O2- 2 a 0 0.763 0.035 1.74 1. 0
O3 O2- 2 a 0 0.264 -.237 2.15 1. 0
#End of TTdata_24860-ICSD