
#(C) 2017 by FIZ Karlsruhe - Leibniz Institute for Information Infrastructure.  All rights reserved.
data_248726-ICSD
_database_code_ICSD 248726
_audit_creation_date 2015-02-01
_chemical_name_systematic 'Mercury(I) sulfate'
_chemical_formula_structural 'Hg2 (S O4)'
_chemical_formula_sum 'Hg2 O4 S1'
_chemical_name_structure_type Hg2SO4
_exptl_crystal_density_diffrn 7.11
_cell_measurement_temperature 295.
_publ_section_title 'Crystal structure of Hg2SO4 - a redetermination'
loop_
_citation_id
_citation_journal_full
_citation_year
_citation_journal_volume
_citation_page_first
_citation_page_last
_citation_journal_id_ASTM
primary 'Acta Crystallographica, Section E. Structure Reports Online' 2014 70
i44 i44 ACSEBH
loop_
_publ_author_name
'Weil, Matthias'
_cell_length_a 6.2771(8)
_cell_length_b 4.4290(6)
_cell_length_c 8.3596(10)
_cell_angle_alpha 90.
_cell_angle_beta 91.695(4)
_cell_angle_gamma 90.
_cell_volume 232.3
_cell_formula_units_Z 2
_symmetry_space_group_name_H-M 'P 1 2/c 1'
_symmetry_Int_Tables_number 13
_refine_ls_R_factor_all 0.0354
loop_
_symmetry_equiv_pos_site_id
_symmetry_equiv_pos_as_xyz
1 'x, -y, z+1/2'
2 '-x, -y, -z'
3 '-x, y, -z+1/2'
4 'x, y, z'
loop_
_atom_type_symbol
_atom_type_oxidation_number
Hg1+ 1
S6+ 6
O2- -2
loop_
_atom_site_label
_atom_site_type_symbol
_atom_site_symmetry_multiplicity
_atom_site_Wyckoff_symbol
_atom_site_fract_x
_atom_site_fract_y
_atom_site_fract_z
_atom_site_B_iso_or_equiv
_atom_site_occupancy
_atom_site_attached_hydrogens
Hg1 Hg1+ 4 g 0.19318(5) 0.05289(9) -0.02034(4) 0.0275(2) 1 0
S1 S6+ 2 f 0.5 0.5674(5) 0.25 0.0134(5) 1 0
O1 O2- 4 g 0.6943(11) 0.3901(16) 0.2586(8) 0.0224(12) 1 0
O2 O2- 4 g 0.5038(9) 0.7720(13) 0.1058(6) 0.0172(10) 1 0
loop_
_atom_site_aniso_label
_atom_site_aniso_type_symbol
_atom_site_aniso_U_11
_atom_site_aniso_U_22
_atom_site_aniso_U_33
_atom_site_aniso_U_12
_atom_site_aniso_U_13
_atom_site_aniso_U_23
Hg1 Hg1+ 0.0119(2) 0.0392(3) 0.0315(3) -0.00369(11) 0.00211(13) 0.00072(13)
S1 S6+ 0.0125(12) 0.0141(11) 0.0136(11) 0. 0.0000(8) 0.
O1 O2- 0.018(3) 0.027(3) 0.022(3) 0.009(2) -0.001(2) 0.004(2)
O2 O2- 0.015(2) 0.020(2) 0.016(2) 0.001(2) 0.0010(18) 0.004(2)
#End of TTdata_248726-ICSD