
#(C) 2017 by FIZ Karlsruhe - Leibniz Institute for Information Infrastructure.  All rights reserved.
data_24894-ICSD
_database_code_ICSD 24894
_audit_creation_date 1980-01-01
_audit_update_record 2006-04-01
_chemical_name_systematic 'Molybdenum(V) oxide phosphate(V)'
_chemical_formula_structural 'Mo O (P O4)'
_chemical_formula_sum 'Mo1 O5 P1'
_chemical_name_structure_type VOSO4-alpha
_exptl_crystal_density_diffrn 4.2
_publ_section_title 'A refinement of the crystal structure of Mo O P O4'
loop_
_citation_id
_citation_journal_full
_citation_year
_citation_journal_volume
_citation_page_first
_citation_page_last
_citation_journal_id_ASTM
primary 'Acta Chemica Scandinavica (1-27,1973-42,1988)' 1970 24 427 432 ACSAA4
loop_
_publ_author_name
'Kierkegaard, P.'
'Longo, J.M.'
_cell_length_a 6.1768(3)
_cell_length_b 6.1768(3)
_cell_length_c 4.2932(3)
_cell_angle_alpha 90.
_cell_angle_beta 90.
_cell_angle_gamma 90.
_cell_volume 163.8
_cell_formula_units_Z 2
_symmetry_space_group_name_H-M 'P 4/n Z'
_symmetry_Int_Tables_number 85
_refine_ls_R_factor_all 0.045
loop_
_symmetry_equiv_pos_site_id
_symmetry_equiv_pos_as_xyz
1 '-y, x+1/2, -z'
2 'y+1/2, -x, -z'
3 'x+1/2, y+1/2, -z'
4 '-x, -y, -z'
5 'y, -x+1/2, z'
6 '-y+1/2, x, z'
7 '-x+1/2, -y+1/2, z'
8 'x, y, z'
loop_
_atom_type_symbol
_atom_type_oxidation_number
Mo5+ 5
P5+ 5
O2- -2
loop_
_atom_site_label
_atom_site_type_symbol
_atom_site_symmetry_multiplicity
_atom_site_Wyckoff_symbol
_atom_site_fract_x
_atom_site_fract_y
_atom_site_fract_z
_atom_site_B_iso_or_equiv
_atom_site_occupancy
_atom_site_attached_hydrogens
Mo1 Mo5+ 2 c 0.25 0.25 0.80244(13) . 1. 0
P1 P5+ 2 b 0.25 0.75 0.5 . 1. 0
O1 O2- 2 c 0.25 0.25 0.1873(12) . 1. 0
O2 O2- 8 g 0.80876(53) 0.44256(49) 0.29562(72) . 1. 0
loop_
_atom_site_aniso_label
_atom_site_aniso_type_symbol
_atom_site_aniso_beta_11
_atom_site_aniso_beta_22
_atom_site_aniso_beta_33
_atom_site_aniso_beta_12
_atom_site_aniso_beta_13
_atom_site_aniso_beta_23
Mo1 Mo5+ 0.00220(8) 0.00220(8) 0.00735(21) 0 0 0
P1 P5+ 0.00262(17) 0.00262(17) 0.00862(59) 0 0 0
O1 O2- 0.00476(49) 0.00476(49) 0.0091(14) 0 0 0
O2 O2- 0.00713(49) 0.00528(44) 0.01456(99) 0.00066(40) 0.00098(58) 0.00205(56)
#End of TTdata_24894-ICSD