
#(C) 2017 by FIZ Karlsruhe - Leibniz Institute for Information Infrastructure.  All rights reserved.
data_249150-ICSD
_database_code_ICSD 249150
_audit_creation_date 2008-02-01
_chemical_name_systematic 'Magnesium iridium silicide (1/3/7)'
_chemical_formula_structural 'Mg Ir3 Si7'
_chemical_formula_sum 'Ir3 Mg1 Si7'
_chemical_name_structure_type Rh3ScSi7
_exptl_crystal_density_diffrn 8.15
_publ_section_title

;
Mg Ir3 Si7, a new magnesium iridium silicide with the Sc Rh3 Si7 type
structure
;
loop_
_citation_id
_citation_journal_full
_citation_year
_citation_journal_volume
_citation_page_first
_citation_page_last
_citation_journal_id_ASTM
primary 'Acta Crystallographica, Section E. Structure Reports Online' 2006 62
i173 i175 ACSEBH
loop_
_publ_author_name
'Lorenz, P.'
'Jung, W.'
_cell_length_a 7.5232(8)
_cell_length_b 7.5232(8)
_cell_length_c 19.959(3)
_cell_angle_alpha 90.
_cell_angle_beta 90.
_cell_angle_gamma 120.
_cell_volume 978.31
_cell_formula_units_Z 6
_symmetry_space_group_name_H-M 'R -3 c H'
_symmetry_Int_Tables_number 167
_refine_ls_R_factor_all 0.018
loop_
_symmetry_equiv_pos_site_id
_symmetry_equiv_pos_as_xyz
1 'x-y, -y, -z+1/2'
2 '-x, -x+y, -z+1/2'
3 'y, x, -z+1/2'
4 'x-y, x, -z'
5 'y, -x+y, -z'
6 '-x, -y, -z'
7 '-x+y, y, z+1/2'
8 'x, x-y, z+1/2'
9 '-y, -x, z+1/2'
10 '-x+y, -x, z'
11 '-y, x-y, z'
12 'x, y, z'
13 'x-y+2/3, -y+1/3, -z+5/6'
14 '-x+2/3, -x+y+1/3, -z+5/6'
15 'y+2/3, x+1/3, -z+5/6'
16 'x-y+2/3, x+1/3, -z+1/3'
17 'y+2/3, -x+y+1/3, -z+1/3'
18 '-x+2/3, -y+1/3, -z+1/3'
19 '-x+y+2/3, y+1/3, z+5/6'
20 'x+2/3, x-y+1/3, z+5/6'
21 '-y+2/3, -x+1/3, z+5/6'
22 '-x+y+2/3, -x+1/3, z+1/3'
23 '-y+2/3, x-y+1/3, z+1/3'
24 'x+2/3, y+1/3, z+1/3'
25 'x-y+1/3, -y+2/3, -z+1/6'
26 '-x+1/3, -x+y+2/3, -z+1/6'
27 'y+1/3, x+2/3, -z+1/6'
28 'x-y+1/3, x+2/3, -z+2/3'
29 'y+1/3, -x+y+2/3, -z+2/3'
30 '-x+1/3, -y+2/3, -z+2/3'
31 '-x+y+1/3, y+2/3, z+1/6'
32 'x+1/3, x-y+2/3, z+1/6'
33 '-y+1/3, -x+2/3, z+1/6'
34 '-x+y+1/3, -x+2/3, z+2/3'
35 '-y+1/3, x-y+2/3, z+2/3'
36 'x+1/3, y+2/3, z+2/3'
loop_
_atom_type_symbol
_atom_type_oxidation_number
Ir0+ 0
Mg0+ 0
Si0+ 0
loop_
_atom_site_label
_atom_site_type_symbol
_atom_site_symmetry_multiplicity
_atom_site_Wyckoff_symbol
_atom_site_fract_x
_atom_site_fract_y
_atom_site_fract_z
_atom_site_B_iso_or_equiv
_atom_site_occupancy
_atom_site_attached_hydrogens
Ir1 Ir0+ 18 e 0.32379(5) 0. 0.25 0.0043(2) 1 0
Mg1 Mg0+ 6 b 0. 0. 0. 0.0156(12) 1 0
Si1 Si0+ 36 f 0.5372(3) 0.6797(3) 0.02944(8) 0.0084(4) 1 0
Si2 Si0+ 6 a 0. 0. 0.25 0.0048(8) 1 0
loop_
_atom_site_aniso_label
_atom_site_aniso_type_symbol
_atom_site_aniso_U_11
_atom_site_aniso_U_22
_atom_site_aniso_U_33
_atom_site_aniso_U_12
_atom_site_aniso_U_13
_atom_site_aniso_U_23
Ir1 Ir0+ 0.0044(2) 0.0046(2) 0.0039(2) 0.00228(12) 0.00025(5) 0.00050(9)
Mg1 Mg0+ 0.0190(18) 0.0190(18) 0.009(2) 0.0095(9) 0. 0.
Si1 Si0+ 0.0110(9) 0.0070(8) 0.0071(7) 0.0045(7) 0.0012(6) -0.0006(6)
Si2 Si0+ 0.0028(11) 0.0028(11) 0.0089(18) 0.0014(6) 0. 0.
#End of TTdata_249150-ICSD