
data_249202-ICSD
_database_code_ICSD 249202
_audit_creation_date 2008-02-01
_chemical_name_systematic 'Cadmium zinc tetrakis(selenocyanate)'
_chemical_formula_structural 'Cd Zn (Se (C N))4'
_chemical_formula_sum 'C4 Cd1 N4 Se4 Zn1'
_exptl_crystal_density_diffrn 3.33
_cell_length_a 11.3420(1)
_cell_length_b 11.3420(1)
_cell_length_c 4.6326(1)
_cell_angle_alpha 90.
_cell_angle_beta 90.
_cell_angle_gamma 90.
_cell_volume 595.94
_cell_formula_units_Z 2
_symmetry_space_group_name_H-M 'I -4'
_symmetry_Int_Tables_number 82
_refine_ls_R_factor_all 0.0428
loop_
_symmetry_equiv_pos_site_id
_symmetry_equiv_pos_as_xyz
1 '-y, x, -z'
2 'y, -x, -z'
3 '-x, -y, z'
4 'x, y, z'
5 '-y+1/2, x+1/2, -z+1/2'
6 'y+1/2, -x+1/2, -z+1/2'
7 '-x+1/2, -y+1/2, z+1/2'
8 'x+1/2, y+1/2, z+1/2'
loop_
_atom_type_symbol
_atom_type_oxidation_number
Cd2+ 2
Zn2+ 2
Se0+ 0
N4- -4
C3+ 3
loop_
_atom_site_label
_atom_site_type_symbol
_atom_site_symmetry_multiplicity
_atom_site_Wyckoff_symbol
_atom_site_fract_x
_atom_site_fract_y
_atom_site_fract_z
_atom_site_B_iso_or_equiv
_atom_site_occupancy
_atom_site_attached_hydrogens
Cd1 Cd2+ 2 b 0.5 0.5 2. 0.0294(3) 1 0
Zn1 Zn2+ 2 d 0.5 0. 2.25 0.0288(4) 1 0
Se1 Se0+ 8 g 0.62183(7) 0.34639(7) 1.68288(19) 0.0318(3) 1 0
N1 N4- 8 g 0.5459(7) 0.1366(6) 2.015(2) 0.0375(15) 1 0
C1 C3+ 8 g 0.5755(7) 0.2189(7) 1.8838(18) 0.0306(16) 1 0
loop_
_atom_site_aniso_label
_atom_site_aniso_type_symbol
_atom_site_aniso_U_11
_atom_site_aniso_U_22
_atom_site_aniso_U_33
_atom_site_aniso_U_12
_atom_site_aniso_U_13
_atom_site_aniso_U_23
Cd1 Cd2+ 0.0227(3) 0.0227(3) 0.0427(6) 0. 0. 0.
Zn1 Zn2+ 0.0226(5) 0.0226(5) 0.0411(11) 0. 0. 0.
Se1 Se0+ 0.0304(4) 0.0252(4) 0.0399(4) 0.0012(3) 0.0060(3) 0.0004(3)
N1 N4- 0.036(4) 0.023(3) 0.053(4) 0.005(3) -0.006(4) 0.000(3)
C1 C3+ 0.029(4) 0.023(3) 0.039(4) 0.002(3) -0.007(3) -0.007(3)
