
data_249520-ICSD
_database_code_ICSD 249520
_audit_creation_date 2008-08-01
_chemical_name_systematic 'Potassium gold indide (1/4/6)'
_chemical_formula_structural 'K Au4 In6'
_chemical_formula_sum 'Au4 In6 K1'
_chemical_name_structure_type LiCo6P4
_exptl_crystal_density_diffrn 10.08
_cell_measurement_temperature 293.
_cell_length_a 8.0581(11)
_cell_length_b 8.0581(11)
_cell_length_c 4.4411(9)
_cell_angle_alpha 90.
_cell_angle_beta 90.
_cell_angle_gamma 120.
_cell_volume 249.74
_cell_formula_units_Z 1
_symmetry_space_group_name_H-M 'P -6 m 2'
_symmetry_Int_Tables_number 187
_refine_ls_R_factor_all 0.0277
loop_
_symmetry_equiv_pos_site_id
_symmetry_equiv_pos_as_xyz
1 'x, x-y, -z'
2 '-x+y, y, -z'
3 '-y, -x, -z'
4 'x, x-y, z'
5 '-x+y, y, z'
6 '-y, -x, z'
7 '-x+y, -x, -z'
8 '-y, x-y, -z'
9 'x, y, -z'
10 '-x+y, -x, z'
11 '-y, x-y, z'
12 'x, y, z'
loop_
_atom_type_symbol
_atom_type_oxidation_number
Au0+ 0
In0+ 0
K0+ 0
loop_
_atom_site_label
_atom_site_type_symbol
_atom_site_symmetry_multiplicity
_atom_site_Wyckoff_symbol
_atom_site_fract_x
_atom_site_fract_y
_atom_site_fract_z
_atom_site_B_iso_or_equiv
_atom_site_occupancy
_atom_site_attached_hydrogens
Au1 Au0+ 1 c 0.3333 0.6667 0. 0.0229(5) 1 0
Au2 Au0+ 3 k 0.79441(10) 0.20559(10) 0.5 0.0241(4) 1 0
In1 In0+ 3 k 0.19539(19) 0.80461(19) 0.5 0.0230(6) 1 0
In2 In0+ 3 j 0.53424(18) 0.46576(18) 0. 0.0235(6) 1 0
K1 K0+ 1 a 0. 0. 0. 0.027(2) 1 0
loop_
_atom_site_aniso_label
_atom_site_aniso_type_symbol
_atom_site_aniso_U_11
_atom_site_aniso_U_22
_atom_site_aniso_U_33
_atom_site_aniso_U_12
_atom_site_aniso_U_13
_atom_site_aniso_U_23
Au1 Au0+ 0.0233(8) 0.0233(8) 0.0220(11) 0.0117(4) 0. 0.
Au2 Au0+ 0.0226(5) 0.0226(5) 0.0246(6) 0.0094(5) 0. 0.
In1 In0+ 0.0216(10) 0.0216(10) 0.0254(13) 0.0106(11) 0. 0.
In2 In0+ 0.0259(10) 0.0259(10) 0.0212(10) 0.0149(11) 0. 0.
K1 K0+ 0.031(4) 0.031(4) 0.019(5) 0.0156(18) 0. 0.
