
#(C) 2017 by FIZ Karlsruhe - Leibniz Institute for Information Infrastructure.  All rights reserved.
data_25016-ICSD
_database_code_ICSD 25016
_audit_creation_date 1980-01-01
_chemical_name_systematic 'Copper hexafluorostannate'
_chemical_formula_structural 'Cu Sn F6'
_chemical_formula_sum 'Cu1 F6 Sn1'
_chemical_name_structure_type LiSbF6
_exptl_crystal_density_diffrn 4.69
_publ_section_title

;
Zur Kenntnis der Verbindungen M Sn F6 mit M = Mn, Fe, Zn, Hg, Pb bzw. Co, Ni,
Cu, Cd
;
loop_
_citation_id
_citation_journal_full
_citation_year
_citation_journal_volume
_citation_page_first
_citation_page_last
_citation_journal_id_ASTM
primary 'Zeitschrift fuer Anorganische und Allgemeine Chemie (1950) (DE)' 1972
392 1 9 ZAACAB
loop_
_publ_author_name
'Hoppe, R.'
'Wilhelm, V.'
'Mueller, B.'
_cell_length_a 5.13
_cell_length_b 5.13
_cell_length_c 13.82
_cell_angle_alpha 90.
_cell_angle_beta 90.
_cell_angle_gamma 120.
_cell_volume 314.97
_cell_formula_units_Z 3
_symmetry_space_group_name_H-M 'R -3 H'
_symmetry_Int_Tables_number 148
loop_
_symmetry_equiv_pos_site_id
_symmetry_equiv_pos_as_xyz
1 'x-y, x, -z'
2 'y, -x+y, -z'
3 '-x, -y, -z'
4 '-x+y, -x, z'
5 '-y, x-y, z'
6 'x, y, z'
7 'x-y+2/3, x+1/3, -z+1/3'
8 'y+2/3, -x+y+1/3, -z+1/3'
9 '-x+2/3, -y+1/3, -z+1/3'
10 '-x+y+2/3, -x+1/3, z+1/3'
11 '-y+2/3, x-y+1/3, z+1/3'
12 'x+2/3, y+1/3, z+1/3'
13 'x-y+1/3, x+2/3, -z+2/3'
14 'y+1/3, -x+y+2/3, -z+2/3'
15 '-x+1/3, -y+2/3, -z+2/3'
16 '-x+y+1/3, -x+2/3, z+2/3'
17 '-y+1/3, x-y+2/3, z+2/3'
18 'x+1/3, y+2/3, z+2/3'
loop_
_atom_type_symbol
_atom_type_oxidation_number
Cu2+ 2
Sn4+ 4
F1- -1
loop_
_atom_site_label
_atom_site_type_symbol
_atom_site_symmetry_multiplicity
_atom_site_Wyckoff_symbol
_atom_site_fract_x
_atom_site_fract_y
_atom_site_fract_z
_atom_site_B_iso_or_equiv
_atom_site_occupancy
_atom_site_attached_hydrogens
Cu1 Cu2+ 3 b 0 0 0.5 . 1. 0
Sn1 Sn4+ 3 a 0 0 0 . 1. 0
F1 F1- 18 f 0.338 0.064 0.083 . 1. 0
#End of TTdata_25016-ICSD