
#(C) 2017 by FIZ Karlsruhe - Leibniz Institute for Information Infrastructure.  All rights reserved.
data_25023-ICSD
_database_code_ICSD 25023
_audit_creation_date 1986-09-30
_audit_update_record 2010-08-01
_chemical_name_systematic 'Bismuth(V) fluoride'
_chemical_formula_structural 'Bi F5'
_chemical_formula_sum 'Bi1 F5'
_chemical_name_structure_type BiF5
_exptl_crystal_density_diffrn 5.51
_publ_section_title 'Zur Kristallstruktur von Wismutpentafluorid'
loop_
_citation_id
_citation_journal_full
_citation_year
_citation_journal_volume
_citation_page_first
_citation_page_last
_citation_journal_id_ASTM
primary 'Zeitschrift fuer Anorganische und Allgemeine Chemie (1950) (DE)' 1971
384 111 114 ZAACAB
loop_
_publ_author_name
'Hebecker, C.'
_cell_length_a 6.581
_cell_length_b 6.581
_cell_length_c 4.229
_cell_angle_alpha 90.
_cell_angle_beta 90.
_cell_angle_gamma 90.
_cell_volume 183.16
_cell_formula_units_Z 2
_symmetry_space_group_name_H-M 'I 4/m'
_symmetry_Int_Tables_number 87
_refine_ls_R_factor_all 0.15
loop_
_symmetry_equiv_pos_site_id
_symmetry_equiv_pos_as_xyz
1 '-y, x, -z'
2 'y, -x, -z'
3 'x, y, -z'
4 '-x, -y, -z'
5 'y, -x, z'
6 '-y, x, z'
7 '-x, -y, z'
8 'x, y, z'
9 '-y+1/2, x+1/2, -z+1/2'
10 'y+1/2, -x+1/2, -z+1/2'
11 'x+1/2, y+1/2, -z+1/2'
12 '-x+1/2, -y+1/2, -z+1/2'
13 'y+1/2, -x+1/2, z+1/2'
14 '-y+1/2, x+1/2, z+1/2'
15 '-x+1/2, -y+1/2, z+1/2'
16 'x+1/2, y+1/2, z+1/2'
loop_
_atom_type_symbol
_atom_type_oxidation_number
Bi5+ 5
F1- -1
loop_
_atom_site_label
_atom_site_type_symbol
_atom_site_symmetry_multiplicity
_atom_site_Wyckoff_symbol
_atom_site_fract_x
_atom_site_fract_y
_atom_site_fract_z
_atom_site_B_iso_or_equiv
_atom_site_occupancy
_atom_site_attached_hydrogens
Bi1 Bi5+ 2 a 0 0 0 1.06 1. 0
F1 F1- 2 b 0 0 0.5 2.34 1. 0
F2 F1- 8 h 0.267(7) 0.109(7) 0 3.06 1. 0
#End of TTdata_25023-ICSD