
#(C) 2017 by FIZ Karlsruhe - Leibniz Institute for Information Infrastructure.  All rights reserved.
data_250363-ICSD
_database_code_ICSD 250363
_audit_creation_date 2007-04-01
_audit_update_record 2008-08-01
_chemical_name_systematic 'Antimony(V) chloride'
_chemical_formula_structural 'Sb Cl5'
_chemical_formula_sum 'Cl5 Sb1'
_chemical_name_structure_type SbCl5
_exptl_crystal_density_diffrn 2.64
_publ_section_title 'Crystal structures of Sb Cl5, V Cl4 and V O Cl3'
loop_
_citation_id
_citation_journal_full
_citation_year
_citation_journal_volume
_citation_page_first
_citation_page_last
_citation_journal_id_ASTM
primary 'Zhurnal Neorganicheskoi Khimii' 2005 50 1845 1850 ZNOKAQ
loop_
_publ_author_name
'Troyanov, S.I.'
_cell_length_a 7.405(3)
_cell_length_b 7.405(3)
_cell_length_c 7.927(3)
_cell_angle_alpha 90.
_cell_angle_beta 90.
_cell_angle_gamma 120.
_cell_volume 376.43
_cell_formula_units_Z 2
_symmetry_space_group_name_H-M 'P 63/m m c'
_symmetry_Int_Tables_number 194
_refine_ls_R_factor_all 0.043
loop_
_symmetry_equiv_pos_site_id
_symmetry_equiv_pos_as_xyz
1 'x, x-y, -z+1/2'
2 '-x+y, y, -z+1/2'
3 '-y, -x, -z+1/2'
4 '-x+y, -x, -z+1/2'
5 '-y, x-y, -z+1/2'
6 'x, y, -z+1/2'
7 '-x, -x+y, z+1/2'
8 'x-y, -y, z+1/2'
9 'y, x, z+1/2'
10 'x-y, x, z+1/2'
11 'y, -x+y, z+1/2'
12 '-x, -y, z+1/2'
13 '-x, -x+y, -z'
14 'x-y, -y, -z'
15 'y, x, -z'
16 'x-y, x, -z'
17 'y, -x+y, -z'
18 '-x, -y, -z'
19 'x, x-y, z'
20 '-x+y, y, z'
21 '-y, -x, z'
22 '-x+y, -x, z'
23 '-y, x-y, z'
24 'x, y, z'
loop_
_atom_type_symbol
_atom_type_oxidation_number
Sb5+ 5
Cl1- -1
loop_
_atom_site_label
_atom_site_type_symbol
_atom_site_symmetry_multiplicity
_atom_site_Wyckoff_symbol
_atom_site_fract_x
_atom_site_fract_y
_atom_site_fract_z
_atom_site_B_iso_or_equiv
_atom_site_occupancy
_atom_site_attached_hydrogens
Sb1 Sb5+ 2 c 0.33333 0.66667 0.25 0.0366(6) 1 0
Cl1 Cl1- 4 f 0.33333 0.66667 -0.0443(6) 0.086(2) 1 0
Cl2 Cl1- 6 h 0.1561(2) 0.3122(4) 0.25 0.080(1) 1 0
#End of TTdata_250363-ICSD