
#(C) 2017 by FIZ Karlsruhe - Leibniz Institute for Information Infrastructure.  All rights reserved.
data_250644-ICSD
_database_code_ICSD 250644
_audit_creation_date 2015-02-01
_chemical_name_systematic 'Copper strontium phosphide (6/2/5)'
_chemical_formula_structural 'Cu6 Sr2 P5'
_chemical_formula_sum 'Cu6 P5 Sr2'
_exptl_crystal_density_diffrn 5.66
_publ_section_title

;
Synthesis, crystal structure, transport, and magnetic properties of novel
ternary copper phosphides, A2 Cu6 P5 (A = Sr, Eu) and Eu Cu4 P3
;
loop_
_citation_id
_citation_journal_full
_citation_year
_citation_journal_volume
_citation_page_first
_citation_page_last
_citation_journal_id_ASTM
primary 'Inorganic Chemistry' 2012 51 8948 8955 INOCAJ
loop_
_publ_author_name
'Charkin, Dmitri O.'
'Urmanov, Arthur V.'
'Kazakov, Sergey M.'
'Batuk, Dmitri'
'Abakumov, Artem M.'
'Knoner, Stephan'
'Gati, Elena'
'Wolf, Bernd'
'Lang, Michael'
'Shevelkov, Andrey V.'
'Van Tendeloo, Gustaaf'
'Antipov, Evgeni V.'
_cell_length_a 4.116
_cell_length_b 4.116
_cell_length_c 24.6486(3)
_cell_angle_alpha 90
_cell_angle_beta 90
_cell_angle_gamma 90
_cell_volume 417.58
_cell_formula_units_Z 2
_symmetry_space_group_name_H-M 'I 4/m m m'
_symmetry_Int_Tables_number 139
_refine_ls_R_factor_all 0.0387
loop_
_symmetry_equiv_pos_site_id
_symmetry_equiv_pos_as_xyz
1 'y, x, -z'
2 '-y, -x, -z'
3 '-y, x, -z'
4 'y, -x, -z'
5 '-x, y, -z'
6 'x, -y, -z'
7 'x, y, -z'
8 '-x, -y, -z'
9 '-y, -x, z'
10 'y, x, z'
11 'y, -x, z'
12 '-y, x, z'
13 'x, -y, z'
14 '-x, y, z'
15 '-x, -y, z'
16 'x, y, z'
17 'y+1/2, x+1/2, -z+1/2'
18 '-y+1/2, -x+1/2, -z+1/2'
19 '-y+1/2, x+1/2, -z+1/2'
20 'y+1/2, -x+1/2, -z+1/2'
21 '-x+1/2, y+1/2, -z+1/2'
22 'x+1/2, -y+1/2, -z+1/2'
23 'x+1/2, y+1/2, -z+1/2'
24 '-x+1/2, -y+1/2, -z+1/2'
25 '-y+1/2, -x+1/2, z+1/2'
26 'y+1/2, x+1/2, z+1/2'
27 'y+1/2, -x+1/2, z+1/2'
28 '-y+1/2, x+1/2, z+1/2'
29 'x+1/2, -y+1/2, z+1/2'
30 '-x+1/2, y+1/2, z+1/2'
31 '-x+1/2, -y+1/2, z+1/2'
32 'x+1/2, y+1/2, z+1/2'
loop_
_atom_type_symbol
_atom_type_oxidation_number
Sr0+ 0
Cu0+ 0
P0+ 0
loop_
_atom_site_label
_atom_site_type_symbol
_atom_site_symmetry_multiplicity
_atom_site_Wyckoff_symbol
_atom_site_fract_x
_atom_site_fract_y
_atom_site_fract_z
_atom_site_B_iso_or_equiv
_atom_site_occupancy
_atom_site_attached_hydrogens
Sr1 Sr0+ 4 e 0 0 0.35112(5) 0.0131(2) 1 0
Cu1 Cu0+ 8 g 0.5 0 0.05213(4) 0.0131(2) 1 0
Cu2 Cu0+ 4 d 0 0.5 0.25 0.0131(2) 1 0
P1 P0+ 2 b 0 0 0.5 0.0131(2) 1 0
P2 P0+ 4 e 0 0 0.10411(13) 0.0131(2) 1 0
P3 P0+ 4 e 0 0 0.19803(12) 0.0131(2) 1 0
#End of TTdata_250644-ICSD