
#(C) 2017 by FIZ Karlsruhe - Leibniz Institute for Information Infrastructure.  All rights reserved.
data_250752-ICSD
_database_code_ICSD 250752
_audit_creation_date 2015-02-01
_chemical_name_systematic 'Lanthanum zinc stannide (2/5/1)'
_chemical_formula_structural 'La2 Zn5 Sn'
_chemical_formula_sum 'La2 Sn1 Zn5'
_exptl_crystal_density_diffrn 6.9
_cell_measurement_temperature 200.
_publ_section_title

;
New polar intermetallic phases RE2 Zn5 Tt (RE = La-Nd; Tt = Sn and Pb).
Synthesis, structure, chemical bonding, and magnetic properties
;
loop_
_citation_id
_citation_journal_full
_citation_year
_citation_journal_volume
_citation_page_first
_citation_page_last
_citation_journal_id_ASTM
primary 'Inorganic Chemistry' 2013 52 9102 9110 INOCAJ
loop_
_publ_author_name
'Suen, Nian-Tzu'
'Bobev, Svilen'
_cell_length_a 4.5508(8)
_cell_length_b 16.753(3)
_cell_length_c 9.1342(16)
_cell_angle_alpha 90.
_cell_angle_beta 90.
_cell_angle_gamma 90.
_cell_volume 696.38
_cell_formula_units_Z 4
_symmetry_space_group_name_H-M 'C m c m'
_symmetry_Int_Tables_number 63
_refine_ls_R_factor_all 0.0259
loop_
_symmetry_equiv_pos_site_id
_symmetry_equiv_pos_as_xyz
1 '-x, y, -z+1/2'
2 '-x, -y, z+1/2'
3 '-x, y, z'
4 '-x, -y, -z'
5 'x, -y, z+1/2'
6 'x, y, -z+1/2'
7 'x, -y, -z'
8 'x, y, z'
9 '-x+1/2, y+1/2, -z+1/2'
10 '-x+1/2, -y+1/2, z+1/2'
11 '-x+1/2, y+1/2, z'
12 '-x+1/2, -y+1/2, -z'
13 'x+1/2, -y+1/2, z+1/2'
14 'x+1/2, y+1/2, -z+1/2'
15 'x+1/2, -y+1/2, -z'
16 'x+1/2, y+1/2, z'
loop_
_atom_type_symbol
_atom_type_oxidation_number
La0+ 0
Sn0+ 0
Zn0+ 0
loop_
_atom_site_label
_atom_site_type_symbol
_atom_site_symmetry_multiplicity
_atom_site_Wyckoff_symbol
_atom_site_fract_x
_atom_site_fract_y
_atom_site_fract_z
_atom_site_B_iso_or_equiv
_atom_site_occupancy
_atom_site_attached_hydrogens
La1 La0+ 4 c 0. 0.79365(5) 0.25 0.0062(2) 1 0
La2 La0+ 4 a 0. 0. 0. 0.0087(3) 1 0
Sn1 Sn0+ 4 c 0. 0.44323(7) 0.25 0.0083(3) 1 0
Zn1 Zn0+ 8 f 0. 0.18519(8) 0.10868(14) 0.0096(3) 1 0
Zn2 Zn0+ 8 f 0. 0.34410(8) 0.01518(14) 0.0093(3) 1 0
Zn3 Zn0+ 4 c 0. 0.60207(12) 0.25 0.0139(5) 1 0
loop_
_atom_site_aniso_label
_atom_site_aniso_type_symbol
_atom_site_aniso_U_11
_atom_site_aniso_U_22
_atom_site_aniso_U_33
_atom_site_aniso_U_12
_atom_site_aniso_U_13
_atom_site_aniso_U_23
La1 La0+ 0.0065(5) 0.0060(5) 0.0062(5) 0. 0. 0.
La2 La0+ 0.0085(5) 0.0084(5) 0.0094(6) 0. 0. 0.0032(4)
Sn1 Sn0+ 0.0093(6) 0.0077(6) 0.0078(6) 0. 0. 0.
Zn1 Zn0+ 0.0090(7) 0.0112(7) 0.0085(7) 0. 0. -0.0023(5)
Zn2 Zn0+ 0.0096(8) 0.0105(8) 0.0079(7) 0. 0. -0.0018(5)
Zn3 Zn0+ 0.0232(11) 0.0092(11) 0.0094(10) 0. 0. 0.
#End of TTdata_250752-ICSD