
#(C) 2017 by FIZ Karlsruhe - Leibniz Institute for Information Infrastructure.  All rights reserved.
data_250709-ICSD
_database_code_ICSD 250709
_audit_creation_date 2015-02-01
_chemical_name_systematic 'Barium cobalt bis(orthophosphate) - beta'
_chemical_formula_structural 'Ba (Co P O4)2'
_chemical_formula_sum 'Ba1 Co2 O8 P2'
_exptl_crystal_density_diffrn 3.79
_cell_measurement_temperature 900.
_publ_section_title 'Puzzling polymorphism of layered Ba(CoPO4)2'
loop_
_citation_id
_citation_journal_full
_citation_year
_citation_journal_volume
_citation_page_first
_citation_page_last
_citation_journal_id_ASTM
primary 'Inorganic Chemistry' 2013 52 8732 8737 INOCAJ
loop_
_publ_author_name
'David, Renald'
'Kabbour, Houria'
'Pautrat, Alain'
'Mentre, Olivier'
_cell_length_a 5.22264(4)
_cell_length_b 5.22264(4)
_cell_length_c 8.26062(10)
_cell_angle_alpha 90
_cell_angle_beta 90
_cell_angle_gamma 120
_cell_volume 195.13
_cell_formula_units_Z 1
_symmetry_space_group_name_H-M 'P -3'
_symmetry_Int_Tables_number 147
_refine_ls_R_factor_all 0.9962
loop_
_symmetry_equiv_pos_site_id
_symmetry_equiv_pos_as_xyz
1 'x-y, x, -z'
2 'y, -x+y, -z'
3 '-x, -y, -z'
4 '-x+y, -x, z'
5 '-y, x-y, z'
6 'x, y, z'
loop_
_atom_type_symbol
_atom_type_oxidation_number
Ba2+ 2
Co2+ 2
P5+ 5
O2- -2
loop_
_atom_site_label
_atom_site_type_symbol
_atom_site_symmetry_multiplicity
_atom_site_Wyckoff_symbol
_atom_site_fract_x
_atom_site_fract_y
_atom_site_fract_z
_atom_site_B_iso_or_equiv
_atom_site_occupancy
_atom_site_attached_hydrogens
Ba1 Ba2+ 1 a 0 0 0 0.088(1) 1. 0
Co1 Co2+ 2 d 0.33333 0.66667 0.6528(3) 0.088(1) 1. 0
P1 P5+ 2 d 0.33333 0.66667 0.2551(4) 0.088(1) 1. 0
O1 O2- 6 g 0.4366(6) 0.9731(6) 0.2290(5) 0.088(1) 1. 0
O2 O2- 2 d 0.33333 0.66667 0.4302(6) 0.088(1) 1. 0
#End of TTdata_250709-ICSD