
#(C) 2017 by FIZ Karlsruhe - Leibniz Institute for Information Infrastructure.  All rights reserved.
data_251169-ICSD
_database_code_ICSD 251169
_audit_creation_date 2015-02-01
_chemical_name_systematic 'Strontium cobalt oxide chloride (3/2/4/2)'
_chemical_formula_structural 'Sr3 Co2 O4 Cl2'
_chemical_formula_sum 'Cl2 Co2 O4 Sr3'
_exptl_crystal_density_diffrn 4.83
_cell_measurement_temperature 5.
_publ_section_title

;
Structure and Magnetism of Sr3Co2O4Cl2 - an electronically driven lattice
distortion in an oxychloride containing square planar CoII centers
;
loop_
_citation_id
_citation_journal_full
_citation_year
_citation_journal_volume
_citation_page_first
_citation_page_last
_citation_journal_id_ASTM
primary 'Journal of the American Chemical Society' 2012 134 15946 15952 JACSAT
loop_
_publ_author_name
'Romero, Fabio Denis'
'Coyle, Lucy'
'Hayward, Michael A.'
_cell_length_a 3.9757(5)
_cell_length_b 4.0294(5)
_cell_length_c 22.147(3)
_cell_angle_alpha 90.
_cell_angle_beta 90.
_cell_angle_gamma 90.
_cell_volume 354.79
_cell_formula_units_Z 2
_symmetry_space_group_name_H-M 'I m m m'
_symmetry_Int_Tables_number 71
_refine_ls_R_factor_all 0.0067
loop_
_symmetry_equiv_pos_site_id
_symmetry_equiv_pos_as_xyz
1 'x, y, -z'
2 'x, -y, z'
3 '-x, y, z'
4 '-x, -y, -z'
5 '-x, -y, z'
6 '-x, y, -z'
7 'x, -y, -z'
8 'x, y, z'
9 'x+1/2, y+1/2, -z+1/2'
10 'x+1/2, -y+1/2, z+1/2'
11 '-x+1/2, y+1/2, z+1/2'
12 '-x+1/2, -y+1/2, -z+1/2'
13 '-x+1/2, -y+1/2, z+1/2'
14 '-x+1/2, y+1/2, -z+1/2'
15 'x+1/2, -y+1/2, -z+1/2'
16 'x+1/2, y+1/2, z+1/2'
loop_
_atom_type_symbol
_atom_type_oxidation_number
Sr2+ 2
Co2+ 2
O2- -2
Cl1- -1
loop_
_atom_site_label
_atom_site_type_symbol
_atom_site_symmetry_multiplicity
_atom_site_Wyckoff_symbol
_atom_site_fract_x
_atom_site_fract_y
_atom_site_fract_z
_atom_site_B_iso_or_equiv
_atom_site_occupancy
_atom_site_attached_hydrogens
Sr1 Sr2+ 2 a 0 0 0 0.0014(3) 1. 0
Sr2 Sr2+ 4 i 0 0 0.1528(1) 0.0014(3) 1. 0
Co1 Co2+ 4 i 0 0 0.4276(3) 0.0090(5) 1. 0
O1 O2- 4 j 0.5 0 0.0749(4) 0.0094(5) 1. 0
O2 O2- 4 j 0 0.5 0.0773(4) 0.0094(5) 1. 0
Cl1 Cl1- 4 i 0 0 0.2952(1) 0.0110(5) 1. 0
#End of TTdata_251169-ICSD