
#(C) 2017 by FIZ Karlsruhe - Leibniz Institute for Information Infrastructure.  All rights reserved.
data_25120-ICSD
_database_code_ICSD 25120
_audit_creation_date 1986-10-20
_audit_update_record 2006-04-01
_chemical_name_systematic 'Palladium iodide - beta'
_chemical_formula_structural 'Pd I2'
_chemical_formula_sum 'I2 Pd1'
_chemical_name_structure_type PtI2
_exptl_crystal_density_diffrn 6.23
_publ_section_title 'Die Kristallstruktur des beta-Palladium(II)-jodids'
loop_
_citation_id
_citation_journal_full
_citation_year
_citation_journal_volume
_citation_page_first
_citation_page_last
_citation_journal_id_ASTM
primary 'Chemische Berichte' 1968 101 2771 2775 CHBEAM
loop_
_publ_author_name
'Thiele, G.'
'Brodersen, K.'
'Kruse, E.'
'Holle, B.'
_cell_length_a 6.69(1)
_cell_length_b 8.60(2)
_cell_length_c 6.87(1)
_cell_angle_alpha 90.
_cell_angle_beta 103.5(3)
_cell_angle_gamma 90.
_cell_volume 384.34
_cell_formula_units_Z 4
_symmetry_space_group_name_H-M 'P 1 21/c 1'
_symmetry_Int_Tables_number 14
_refine_ls_R_factor_all 0.15
loop_
_symmetry_equiv_pos_site_id
_symmetry_equiv_pos_as_xyz
1 'x, -y+1/2, z+1/2'
2 '-x, -y, -z'
3 '-x, y+1/2, -z+1/2'
4 'x, y, z'
loop_
_atom_type_symbol
_atom_type_oxidation_number
Pd2+ 2
I1- -1
loop_
_atom_site_label
_atom_site_type_symbol
_atom_site_symmetry_multiplicity
_atom_site_Wyckoff_symbol
_atom_site_fract_x
_atom_site_fract_y
_atom_site_fract_z
_atom_site_B_iso_or_equiv
_atom_site_occupancy
_atom_site_attached_hydrogens
Pd1 Pd2+ 4 e 0.236 0.628 -.003 . 1. 0
I1 I1- 4 e 0.017 0.085 0.269 . 1. 0
I2 I1- 4 e 0.54 0.332 0.263 . 1. 0
#End of TTdata_25120-ICSD