
data_252146-ICSD
_database_code_ICSD 252146
_audit_creation_date 2016-08-01
_chemical_name_systematic 'Calcium cobalt sulfide oxide (1/1/1/1)'
_chemical_formula_structural 'Ca Co S O'
_chemical_formula_sum 'Ca1 Co1 O1 S1'
_exptl_crystal_density_diffrn 3.65
_cell_measurement_temperature 298.
_cell_length_a 3.732(2)
_cell_length_b 3.732(2)
_cell_length_c 11.086(7)
_cell_angle_alpha 90.
_cell_angle_beta 90.
_cell_angle_gamma 120.
_cell_volume 133.72
_cell_formula_units_Z 2
_symmetry_space_group_name_H-M 'P 63 m c'
_symmetry_Int_Tables_number 186
_refine_ls_R_factor_all 0.0387
loop_
_symmetry_equiv_pos_site_id
_symmetry_equiv_pos_as_xyz
1 '-x, -x+y, z+1/2'
2 'x-y, -y, z+1/2'
3 'y, x, z+1/2'
4 'x-y, x, z+1/2'
5 'y, -x+y, z+1/2'
6 '-x, -y, z+1/2'
7 'x, x-y, z'
8 '-x+y, y, z'
9 '-y, -x, z'
10 '-x+y, -x, z'
11 '-y, x-y, z'
12 'x, y, z'
loop_
_atom_type_symbol
_atom_type_oxidation_number
Ca2+ 2
Co2+ 2
S2- -2
O2- -2
loop_
_atom_site_label
_atom_site_type_symbol
_atom_site_symmetry_multiplicity
_atom_site_Wyckoff_symbol
_atom_site_fract_x
_atom_site_fract_y
_atom_site_fract_z
_atom_site_B_iso_or_equiv
_atom_site_occupancy
_atom_site_attached_hydrogens
Ca1 Ca2+ 2 b 0.3333 0.6667 0.2668(4) 0.00063 1. 0
Co1 Co2+ 2 a 0 0 0 0.0016(8) 1. 0
S1 S2- 2 b 0.6667 0.3333 0.0782(6) 0.00063 1. 0
O1 O2- 2 a 0 0 0.3316(4) 0.0008(3) 1. 0
