
#(C) 2017 by FIZ Karlsruhe - Leibniz Institute for Information Infrastructure.  All rights reserved.
data_2533-ICSD
_database_code_ICSD 2533
_audit_creation_date 1980-01-01
_audit_update_record 2012-08-01
_chemical_name_systematic 'Mercury molybdate'
_chemical_formula_structural 'Hg (Mo O4)'
_chemical_formula_sum 'Hg1 Mo1 O4'
_chemical_name_structure_type HgMoO4
_exptl_crystal_density_diffrn 7.35
_publ_section_title 'The crystal structure of Hg Mo O4 and related compounds'
loop_
_citation_id
_citation_journal_full
_citation_year
_citation_journal_volume
_citation_page_first
_citation_page_last
_citation_journal_id_ASTM
primary 'Acta Crystallographica B (24,1968-38,1982)' 1973 29 869 875 ACBCAR
loop_
_publ_author_name
'Jeitschko, W.'
'Sleight, A.W.'
_cell_length_a 11.282(2)
_cell_length_b 6.055(1)
_cell_length_c 5.154(1)
_cell_angle_alpha 90.
_cell_angle_beta 112.27(1)
_cell_angle_gamma 90.
_cell_volume 325.82
_cell_formula_units_Z 4
_symmetry_space_group_name_H-M 'C 1 2/c 1'
_symmetry_Int_Tables_number 15
_refine_ls_R_factor_all 0.021
loop_
_symmetry_equiv_pos_site_id
_symmetry_equiv_pos_as_xyz
1 'x, -y, z+1/2'
2 '-x, -y, -z'
3 '-x, y, -z+1/2'
4 'x, y, z'
5 'x+1/2, -y+1/2, z+1/2'
6 '-x+1/2, -y+1/2, -z'
7 '-x+1/2, y+1/2, -z+1/2'
8 'x+1/2, y+1/2, z'
loop_
_atom_type_symbol
_atom_type_oxidation_number
Hg2+ 2
Mo6+ 6
O2- -2
loop_
_atom_site_label
_atom_site_type_symbol
_atom_site_symmetry_multiplicity
_atom_site_Wyckoff_symbol
_atom_site_fract_x
_atom_site_fract_y
_atom_site_fract_z
_atom_site_B_iso_or_equiv
_atom_site_occupancy
_atom_site_attached_hydrogens
Hg1 Hg2+ 4 c 0.25 0.25 0 . 1. 0
Mo1 Mo6+ 4 e 0 0.18801(6) 0.25 . 1. 0
O1 O2- 8 f 0.0982(2) 0.0906(4) 0.0320(4) . 1. 0
O2 O2- 8 f 0.1141(3) 0.3641(5) 0.4688(5) . 1. 0
loop_
_atom_site_aniso_label
_atom_site_aniso_type_symbol
_atom_site_aniso_beta_11
_atom_site_aniso_beta_22
_atom_site_aniso_beta_33
_atom_site_aniso_beta_12
_atom_site_aniso_beta_13
_atom_site_aniso_beta_23
Hg1 Hg2+ 0.00145(2) 0.00637(6) 0.01019(8) -.00104(1) -.00018(2) 0.00208(3)
Mo1 Mo6+ 0.00135(2) 0.00385(9) 0.00594(10) 0 0 0.00147(4)
O1 O2- 0.00234(15) 0.00619(50) 0.01387(71) -.00135(23) -.00182(46) 0.00374(28)
O2 O2- 0.00330(18) 0.00708(47) 0.01286(72) -.00101(27) -.00117(52) 0.00183(30)
#End of TTdata_2533-ICSD