
#(C) 2017 by FIZ Karlsruhe - Leibniz Institute for Information Infrastructure.  All rights reserved.
data_253429-ICSD
_database_code_ICSD 253429
_audit_creation_date 2017-08-01
_chemical_name_systematic 'Lanthanum palladium germanide (2/3/5)'
_chemical_formula_structural 'La2 Pd3 Ge5'
_chemical_formula_sum 'Ge5 La2 Pd3'
_chemical_name_structure_type U2Co3Si5
_exptl_crystal_density_diffrn 8.29
_publ_section_title

;
The R2Pd3Ge5 (R = La-Nd, Sm) germanides: synthesis, crystal structure and
symmetry reduction
;
_publ_section_comment 'Cell and Type only determined'
loop_
_citation_id
_citation_journal_full
_citation_year
_citation_journal_volume
_citation_page_first
_citation_page_last
_citation_journal_id_ASTM
primary 'Structural Chemistry' 2016 27 1693 1701 STCHES
loop_
_publ_author_name
'Solokha, Pavlo'
'Freccero, Riccardo'
'De Negri, Serena'
'Proserpio, Davide M.'
'Saccone, Adriana'
_cell_length_a 10.1834(7)
_cell_length_b 12.209(1)
_cell_length_c 6.1898(3)
_cell_angle_alpha 90
_cell_angle_beta 90
_cell_angle_gamma 90
_cell_volume 769.57
_cell_formula_units_Z 4
_symmetry_space_group_name_H-M 'I b a m'
_symmetry_Int_Tables_number 72
loop_
_symmetry_equiv_pos_site_id
_symmetry_equiv_pos_as_xyz
1 '-x, y, z+1/2'
2 'x, -y, z+1/2'
3 'x, y, -z'
4 '-x, -y, -z'
5 'x, -y, -z+1/2'
6 '-x, y, -z+1/2'
7 '-x, -y, z'
8 'x, y, z'
9 '-x+1/2, y+1/2, z'
10 'x+1/2, -y+1/2, z'
11 'x+1/2, y+1/2, -z+1/2'
12 '-x+1/2, -y+1/2, -z+1/2'
13 'x+1/2, -y+1/2, -z'
14 '-x+1/2, y+1/2, -z'
15 '-x+1/2, -y+1/2, z+1/2'
16 'x+1/2, y+1/2, z+1/2'
loop_
_atom_type_symbol
_atom_type_oxidation_number
La0+ 0
Pd0+ 0
Ge0+ 0
loop_
_atom_site_label
_atom_site_type_symbol
_atom_site_symmetry_multiplicity
_atom_site_Wyckoff_symbol
_atom_site_fract_x
_atom_site_fract_y
_atom_site_fract_z
_atom_site_B_iso_or_equiv
_atom_site_occupancy
_atom_site_attached_hydrogens
La1 La0+ 8 j 0.27 0.37 0 . 1 0
Pd1 Pd0+ 8 j 0.11 0.14 0 . 1 0
Pd2 Pd0+ 4 b 0.5 0 0.25 . 1 0
Ge1 Ge0+ 4 a 0 0 0.25 . 1 0
Ge2 Ge0+ 8 j 0.34 0.11 0 . 1 0
Ge3 Ge0+ 8 g 0 0.27 0.25 . 1 0
#End of TTdata_253429-ICSD