
data_2536-ICSD
_database_code_ICSD 2536
_audit_creation_date 1980-01-01
_audit_update_record 2012-08-01
_chemical_name_systematic 'Barium strontium tetrairon(III) oxide - beta'
_chemical_formula_structural 'Ba Sr Fe4 O8'
_chemical_formula_sum 'Ba1 Fe4 O8 Sr1'
_exptl_crystal_density_diffrn 4.6
_cell_length_a 5.448
_cell_length_b 5.448
_cell_length_c 8.091
_cell_angle_alpha 90.
_cell_angle_beta 90.
_cell_angle_gamma 120.
_cell_volume 207.97
_cell_formula_units_Z 1
_symmetry_space_group_name_H-M 'P -6 m 2'
_symmetry_Int_Tables_number 187
_refine_ls_R_factor_all 0.17
loop_
_symmetry_equiv_pos_site_id
_symmetry_equiv_pos_as_xyz
1 'x, x-y, -z'
2 '-x+y, y, -z'
3 '-y, -x, -z'
4 'x, x-y, z'
5 '-x+y, y, z'
6 '-y, -x, z'
7 '-x+y, -x, -z'
8 '-y, x-y, -z'
9 'x, y, -z'
10 '-x+y, -x, z'
11 '-y, x-y, z'
12 'x, y, z'
loop_
_atom_type_symbol
_atom_type_oxidation_number
Ba2+ 2
Sr2+ 2
Fe3+ 3
O2- -2
loop_
_atom_site_label
_atom_site_type_symbol
_atom_site_symmetry_multiplicity
_atom_site_Wyckoff_symbol
_atom_site_fract_x
_atom_site_fract_y
_atom_site_fract_z
_atom_site_B_iso_or_equiv
_atom_site_occupancy
_atom_site_attached_hydrogens
Ba1 Ba2+ 1 a 0 0 0 . 1. 0
Sr1 Sr2+ 1 b 0 0 0.5 . 1. 0
Fe1 Fe3+ 2 h 0.3333 0.6667 0.245 . 1. 0
Fe2 Fe3+ 2 i 0.6667 0.3333 0.255 . 1. 0
O1 O2- 1 c 0.3333 0.6667 0 . 1. 0
O2 O2- 1 f 0.6667 0.3333 0.5 . 1. 0
O3 O2- 6 n 0.515 -.515 0.26 . 1. 0
