
#(C) 2017 by FIZ Karlsruhe - Leibniz Institute for Information Infrastructure.  All rights reserved.
data_25573-ICSD
_database_code_ICSD 25573
_audit_creation_date 1980-01-01
_audit_update_record 1987-02-13
_chemical_name_systematic 'Bismuth sulfide chloride'
_chemical_formula_structural 'Bi S Cl'
_chemical_formula_sum 'Bi1 Cl1 S1'
_chemical_name_structure_type PbCl2
_exptl_crystal_density_diffrn 6.04
_publ_section_title 'Ueber Thiohalogenide des dreiwertigen Antimons und Wismuts'
loop_
_citation_id
_citation_journal_full
_citation_year
_citation_journal_volume
_citation_page_first
_citation_page_last
_citation_journal_id_ASTM
primary 'Zeitschrift fuer Anorganische und Allgemeine Chemie (1950) (DE)' 1950
263 112 132 ZAACAB
loop_
_publ_author_name
'Doenges, E.'
_cell_length_a 7.7
_cell_length_b 9.87
_cell_length_c 4.
_cell_angle_alpha 90.
_cell_angle_beta 90.
_cell_angle_gamma 90.
_cell_volume 304.
_cell_formula_units_Z 4
_symmetry_space_group_name_H-M 'P n a m'
_symmetry_Int_Tables_number 62
loop_
_symmetry_equiv_pos_site_id
_symmetry_equiv_pos_as_xyz
1 'x+1/2, -y+1/2, z'
2 'x, y, -z+1/2'
3 '-x+1/2, y+1/2, z+1/2'
4 '-x, -y, -z'
5 '-x+1/2, y+1/2, -z'
6 '-x, -y, z+1/2'
7 'x+1/2, -y+1/2, -z+1/2'
8 'x, y, z'
loop_
_atom_type_symbol
_atom_type_oxidation_number
Bi3+ 3
S2- -2
Cl1- -1
loop_
_atom_site_label
_atom_site_type_symbol
_atom_site_symmetry_multiplicity
_atom_site_Wyckoff_symbol
_atom_site_fract_x
_atom_site_fract_y
_atom_site_fract_z
_atom_site_B_iso_or_equiv
_atom_site_occupancy
_atom_site_attached_hydrogens
Bi1 Bi3+ 4 c 0.14 0.138 0.25 . 1. 0
S1 S2- 4 c 0.77 0.04 0.25 . 1. 0
Cl1 Cl1- 4 c 0.5 0.79 0.25 . 1. 0
#End of TTdata_25573-ICSD