
#(C) 2017 by FIZ Karlsruhe - Leibniz Institute for Information Infrastructure.  All rights reserved.
data_25700-ICSD
_database_code_ICSD 25700
_audit_creation_date 1980-01-01
_audit_update_record 2000-07-15
_chemical_name_systematic 'Nickel selenate(VI)'
_chemical_formula_structural 'Ni (Se O4)'
_chemical_formula_sum 'Ni1 O4 Se1'
_chemical_name_structure_type CrVO4
_exptl_crystal_density_diffrn 4.82
_publ_section_title

;
Bestimmung der Kristallstruktur der Selenate M Se O4 (M = Mn, Co, Ni) durch
Roentgen- und Neutronenbeugung
;
loop_
_citation_id
_citation_journal_full
_citation_year
_citation_journal_volume
_citation_page_first
_citation_page_last
_citation_journal_id_ASTM
primary 'Zeitschrift fuer Anorganische und Allgemeine Chemie (1950) (DE)' 1968
358 125 137 ZAACAB
loop_
_publ_author_name
'Fuess, H.'
'Will, G.'
_cell_length_a 5.406(1)
_cell_length_b 8.095(2)
_cell_length_c 6.351(2)
_cell_angle_alpha 90.
_cell_angle_beta 90.
_cell_angle_gamma 90.
_cell_volume 277.93
_cell_formula_units_Z 4
_symmetry_space_group_name_H-M 'C m c m'
_symmetry_Int_Tables_number 63
_refine_ls_R_factor_all 0.0599
loop_
_symmetry_equiv_pos_site_id
_symmetry_equiv_pos_as_xyz
1 '-x, y, -z+1/2'
2 '-x, -y, z+1/2'
3 '-x, y, z'
4 '-x, -y, -z'
5 'x, -y, z+1/2'
6 'x, y, -z+1/2'
7 'x, -y, -z'
8 'x, y, z'
9 '-x+1/2, y+1/2, -z+1/2'
10 '-x+1/2, -y+1/2, z+1/2'
11 '-x+1/2, y+1/2, z'
12 '-x+1/2, -y+1/2, -z'
13 'x+1/2, -y+1/2, z+1/2'
14 'x+1/2, y+1/2, -z+1/2'
15 'x+1/2, -y+1/2, -z'
16 'x+1/2, y+1/2, z'
loop_
_atom_type_symbol
_atom_type_oxidation_number
Ni2+ 2
Se6+ 6
O2- -2
loop_
_atom_site_label
_atom_site_type_symbol
_atom_site_symmetry_multiplicity
_atom_site_Wyckoff_symbol
_atom_site_fract_x
_atom_site_fract_y
_atom_site_fract_z
_atom_site_B_iso_or_equiv
_atom_site_occupancy
_atom_site_attached_hydrogens
Ni1 Ni2+ 4 a 0 0 0 0.46 1. 0
Se1 Se6+ 4 c 0 0.354(1) 0.25 0.46 1. 0
O1 O2- 8 f 0 0.243(2) 0.022(3) 0.46 1. 0
O2 O2- 8 g 0.245(2) 0.473(3) 0.25 0.46 1. 0
#End of TTdata_25700-ICSD