
data_25744-ICSD
_database_code_ICSD 25744
_audit_creation_date 1980-01-01
_audit_update_record 2007-08-01
_chemical_name_systematic 'Potassium silver oxide'
_chemical_formula_structural 'K Ag O'
_chemical_formula_sum 'Ag1 K1 O1'
_chemical_name_structure_type KCuO
_exptl_crystal_density_diffrn 4.04
_cell_length_a 9.91
_cell_length_b 9.91
_cell_length_c 5.46
_cell_angle_alpha 90.
_cell_angle_beta 90.
_cell_angle_gamma 90.
_cell_volume 536.22
_cell_formula_units_Z 8
_symmetry_space_group_name_H-M 'I -4'
_symmetry_Int_Tables_number 82
_refine_ls_R_factor_all 0.0905
loop_
_symmetry_equiv_pos_site_id
_symmetry_equiv_pos_as_xyz
1 '-y, x, -z'
2 'y, -x, -z'
3 '-x, -y, z'
4 'x, y, z'
5 '-y+1/2, x+1/2, -z+1/2'
6 'y+1/2, -x+1/2, -z+1/2'
7 '-x+1/2, -y+1/2, z+1/2'
8 'x+1/2, y+1/2, z+1/2'
loop_
_atom_type_symbol
_atom_type_oxidation_number
K1+ 1
Ag1+ 1
O2- -2
loop_
_atom_site_label
_atom_site_type_symbol
_atom_site_symmetry_multiplicity
_atom_site_Wyckoff_symbol
_atom_site_fract_x
_atom_site_fract_y
_atom_site_fract_z
_atom_site_B_iso_or_equiv
_atom_site_occupancy
_atom_site_attached_hydrogens
K1 K1+ 8 g 0.187 -.001 0.746 1.44 1. 0
Ag1 Ag1+ 8 g 0.353 0.147 0.25 0.875 1. 0
O1 O2- 8 g 0.191 -.002 0.251 2.42 1. 0
