
#(C) 2017 by FIZ Karlsruhe - Leibniz Institute for Information Infrastructure.  All rights reserved.
data_25753-ICSD
_database_code_ICSD 25753
_audit_creation_date 1980-01-01
_audit_update_record 2014-08-01
_chemical_name_systematic 'Tungsten cobalt boride (3/1/3)'
_chemical_formula_structural 'W3 Co B3'
_chemical_formula_sum 'B3 Co1 W3'
_chemical_name_structure_type CoW3B3
_exptl_crystal_density_diffrn 14.9
_publ_section_title

;
Die Kristallstruktur des W3 Co B3 und der dazu isotypen Phasen Mo3 Co B3, Mo3
Ni B3 und W3 Ni B3
;
loop_
_citation_id
_citation_journal_full
_citation_year
_citation_journal_volume
_citation_page_first
_citation_page_last
_citation_journal_id_ASTM
primary 'Monatshefte fuer Chemie' 1969 100 844 850 MOCHAP
loop_
_publ_author_name
'Jedlicka, H.'
'Benesovsky, F.'
'Nowotny, H.N.'
_cell_length_a 3.173
_cell_length_b 8.422
_cell_length_c 10.728
_cell_angle_alpha 90.
_cell_angle_beta 90.
_cell_angle_gamma 90.
_cell_volume 286.68
_cell_formula_units_Z 4
_symmetry_space_group_name_H-M 'C m c m'
_symmetry_Int_Tables_number 63
_refine_ls_R_factor_all 0.11
loop_
_symmetry_equiv_pos_site_id
_symmetry_equiv_pos_as_xyz
1 '-x, y, -z+1/2'
2 '-x, -y, z+1/2'
3 '-x, y, z'
4 '-x, -y, -z'
5 'x, -y, z+1/2'
6 'x, y, -z+1/2'
7 'x, -y, -z'
8 'x, y, z'
9 '-x+1/2, y+1/2, -z+1/2'
10 '-x+1/2, -y+1/2, z+1/2'
11 '-x+1/2, y+1/2, z'
12 '-x+1/2, -y+1/2, -z'
13 'x+1/2, -y+1/2, z+1/2'
14 'x+1/2, y+1/2, -z+1/2'
15 'x+1/2, -y+1/2, -z'
16 'x+1/2, y+1/2, z'
loop_
_atom_type_symbol
_atom_type_oxidation_number
W0+ 0
Co0+ 0
B0+ 0
loop_
_atom_site_label
_atom_site_type_symbol
_atom_site_symmetry_multiplicity
_atom_site_Wyckoff_symbol
_atom_site_fract_x
_atom_site_fract_y
_atom_site_fract_z
_atom_site_B_iso_or_equiv
_atom_site_occupancy
_atom_site_attached_hydrogens
W1 W0+ 8 f 0 0.2101(6) 0.1064(3) 0.2 1. 0
W2 W0+ 4 c 0 0.5000(5) 0.25 0.2 1. 0
Co1 Co0+ 4 b 0 0.5 0 0.7 1. 0
B1 B0+ 8 f 0 0.9071(38) 0.1136(17) 0.1 1. 0
B2 B0+ 4 c 0 0.7953(27) 0.25 0.1 1. 0
#End of TTdata_25753-ICSD