
data_2595-ICSD
_database_code_ICSD 2595
_audit_creation_date 1980-01-01
_audit_update_record 2014-08-01
_chemical_name_systematic 'Platinum germanium selenide (1/1/1)'
_chemical_formula_structural 'Pt Ge Se'
_chemical_formula_sum 'Ge1 Pt1 Se1'
_chemical_name_structure_type PtGeSe
_exptl_crystal_density_diffrn 10.52
_cell_length_a 6.015(4)
_cell_length_b 6.072(1)
_cell_length_c 5.992(1)
_cell_angle_alpha 90.
_cell_angle_beta 90.
_cell_angle_gamma 90.
_cell_volume 218.85
_cell_formula_units_Z 4
_symmetry_space_group_name_H-M 'P c a 21'
_symmetry_Int_Tables_number 29
_refine_ls_R_factor_all 0.089
loop_
_symmetry_equiv_pos_site_id
_symmetry_equiv_pos_as_xyz
1 'x+1/2, -y, z'
2 '-x+1/2, y, z+1/2'
3 '-x, -y, z+1/2'
4 'x, y, z'
loop_
_atom_type_symbol
_atom_type_oxidation_number
Pt0+ 0
Ge0+ 0
Se0+ 0
loop_
_atom_site_label
_atom_site_type_symbol
_atom_site_symmetry_multiplicity
_atom_site_Wyckoff_symbol
_atom_site_fract_x
_atom_site_fract_y
_atom_site_fract_z
_atom_site_B_iso_or_equiv
_atom_site_occupancy
_atom_site_attached_hydrogens
Pt1 Pt0+ 4 a 0.0086(1) 0.7420(1) 0 0.276 1. 0
Ge1 Ge0+ 4 a 0.3833(4) 0.1364(4) 0.6168(7) 0.204 1. 0
Se1 Se0+ 4 a 0.6198(4) 0.3759(4) 0.3820(7) 0.415 1. 0
