
#(C) 2017 by FIZ Karlsruhe - Leibniz Institute for Information Infrastructure.  All rights reserved.
data_26029-ICSD
_database_code_ICSD 26029
_audit_creation_date 1980-01-01
_audit_update_record 2006-04-01
_chemical_name_systematic 'Strontium hydroxide'
_chemical_formula_structural 'Sr (O H)2'
_chemical_formula_sum 'H2 O2 Sr1'
_chemical_name_structure_type Sr(OH)2
_exptl_crystal_density_diffrn 3.41
_publ_section_title
'Neue A B2-Strukturtypen mit siebenfach koordiniertem Kation.'
loop_
_citation_id
_citation_journal_full
_citation_year
_citation_journal_volume
_citation_page_first
_citation_page_last
_citation_journal_id_ASTM
primary

;
Zeitschrift fuer Kristallographie, Kristallgeometrie, Kristallphysik,
Kristallchemie (-144,1977)
; 1969 128 431 431 ZEKGAX
loop_
_publ_author_name
'Baernighausen, H.'
'Beck, H.'
'Grueninger, H.W.'
'Rietschel, E.T.'
'Schultz, N.'
_cell_length_a 9.8889
_cell_length_b 6.1202
_cell_length_c 3.9184
_cell_angle_alpha 90.
_cell_angle_beta 90.
_cell_angle_gamma 90.
_cell_volume 237.15
_cell_formula_units_Z 4
_symmetry_space_group_name_H-M 'P n a m'
_symmetry_Int_Tables_number 62
loop_
_symmetry_equiv_pos_site_id
_symmetry_equiv_pos_as_xyz
1 'x+1/2, -y+1/2, z'
2 'x, y, -z+1/2'
3 '-x+1/2, y+1/2, z+1/2'
4 '-x, -y, -z'
5 '-x+1/2, y+1/2, -z'
6 '-x, -y, z+1/2'
7 'x+1/2, -y+1/2, -z+1/2'
8 'x, y, z'
loop_
_atom_type_symbol
_atom_type_oxidation_number
Sr2+ 2
O2- -2
H1+ 1
loop_
_atom_site_label
_atom_site_type_symbol
_atom_site_symmetry_multiplicity
_atom_site_Wyckoff_symbol
_atom_site_fract_x
_atom_site_fract_y
_atom_site_fract_z
_atom_site_B_iso_or_equiv
_atom_site_occupancy
_atom_site_attached_hydrogens
Sr1 Sr2+ 4 c 0.1613 0.0959 0.25 . 1. 0
O1 O2- 4 c 0.395 0.344 0.25 . 1. 0
O2 O2- 4 c 0.369 -.135 0.25 . 1. 0
#End of TTdata_26029-ICSD