
#(C) 2017 by FIZ Karlsruhe - Leibniz Institute for Information Infrastructure.  All rights reserved.
data_26021-ICSD
_database_code_ICSD 26021
_audit_creation_date 1980-01-01
_audit_update_record 2012-08-01
_chemical_name_systematic 'Rubidium tetrachloroaurate'
_chemical_formula_structural 'Rb (Au Cl4)'
_chemical_formula_sum 'Au1 Cl4 Rb1'
_exptl_crystal_density_diffrn 4.
_publ_section_title
'Kristallchemischer Vergleich der Strukturen von Rb Au Cl4 und Rb Au Br4.'
loop_
_citation_id
_citation_journal_full
_citation_year
_citation_journal_volume
_citation_page_first
_citation_page_last
_citation_journal_id_ASTM
primary

;
Zeitschrift fuer Kristallographie, Kristallgeometrie, Kristallphysik,
Kristallchemie (-144,1977)
; 1971 134 471 472 ZEKGAX
loop_
_publ_author_name
'Straehle, J.'
'Baernighausen, H.'
_cell_length_a 9.76
_cell_length_b 5.902
_cell_length_c 14.116
_cell_angle_alpha 90.
_cell_angle_beta 120.05
_cell_angle_gamma 90.
_cell_volume 703.84
_cell_formula_units_Z 4
_symmetry_space_group_name_H-M 'I 1 2/c 1'
_symmetry_Int_Tables_number 15
loop_
_symmetry_equiv_pos_site_id
_symmetry_equiv_pos_as_xyz
1 '-x, y, -z+1/2'
2 '-x, -y, -z'
3 'x, -y, z+1/2'
4 'x, y, z'
5 '-x+1/2, y+1/2, -z'
6 '-x+1/2, -y+1/2, -z+1/2'
7 'x+1/2, -y+1/2, z'
8 'x+1/2, y+1/2, z+1/2'
loop_
_atom_type_symbol
_atom_type_oxidation_number
Au3+ 3
Rb1+ 1
Cl1- -1
loop_
_atom_site_label
_atom_site_type_symbol
_atom_site_symmetry_multiplicity
_atom_site_Wyckoff_symbol
_atom_site_fract_x
_atom_site_fract_y
_atom_site_fract_z
_atom_site_B_iso_or_equiv
_atom_site_occupancy
_atom_site_attached_hydrogens
Au1 Au3+ 4 a 0 0 0 2.51 1. 0
Rb1 Rb1+ 4 e 0 0.4763(4) 0.25 3.91 1. 0
Cl1 Cl1- 8 f 0.1161(7) -.0210(8) 0.1855(4) 3.72 1. 0
Cl2 Cl1- 8 f 0.1633(8) 0.2943(8) 0.0187(5) 4.48 1. 0
#End of TTdata_26021-ICSD