
#(C) 2017 by FIZ Karlsruhe - Leibniz Institute for Information Infrastructure.  All rights reserved.
data_260564-ICSD
_database_code_ICSD 260564
_audit_creation_date 2010-02-01
_chemical_name_systematic 'Barium indium phosphide (1/2/2)'
_chemical_formula_structural 'Ba In2 P2'
_chemical_formula_sum 'Ba1 In2 P2'
_exptl_crystal_density_diffrn 5.29
_cell_measurement_temperature 90.
_publ_section_title

;
Flux growth and structure of two compounds with the Eu In2 P2 structure type,
A In2 P2 (A = Ca and Sr), and a new structure type, Ba In2 P2
;
loop_
_citation_id
_citation_journal_full
_citation_year
_citation_journal_volume
_citation_page_first
_citation_page_last
_citation_journal_id_ASTM
primary 'Acta Crystallographica, Section C: Crystal Structure Communications'
2009 65 i69 i73 ACSCEE
loop_
_publ_author_name
'Rauscher, J.F.'
'Condron, C.L.'
'Beault, T.'
'Kauzlarich, S.M.'
'Jensen, N.'
'Klavins, P.'
'MaQuilon, S.'
'Fisk, Z.'
'Olmstead, M.M.'
_cell_length_a 9.9652(8)
_cell_length_b 4.1789(3)
_cell_length_c 12.9834(10)
_cell_angle_alpha 90.
_cell_angle_beta 95.326(2)
_cell_angle_gamma 90.
_cell_volume 538.34
_cell_formula_units_Z 4
_symmetry_space_group_name_H-M 'P 1 21/m 1'
_symmetry_Int_Tables_number 11
_refine_ls_R_factor_all 0.0383
loop_
_symmetry_equiv_pos_site_id
_symmetry_equiv_pos_as_xyz
1 'x, -y+1/2, z'
2 '-x, -y, -z'
3 '-x, y+1/2, -z'
4 'x, y, z'
loop_
_atom_type_symbol
_atom_type_oxidation_number
Ba0+ 0
In0+ 0
P0+ 0
loop_
_atom_site_label
_atom_site_type_symbol
_atom_site_symmetry_multiplicity
_atom_site_Wyckoff_symbol
_atom_site_fract_x
_atom_site_fract_y
_atom_site_fract_z
_atom_site_B_iso_or_equiv
_atom_site_occupancy
_atom_site_attached_hydrogens
Ba1 Ba0+ 2 e 0.55267(6) 0.25 0.84462(5) 0.00507(16) 1 0
Ba2 Ba0+ 2 e 0.15873(6) -0.75 0.41054(5) 0.00517(16) 1 0
In1 In0+ 2 e 0.44833(7) -0.25 0.59588(5) 0.00439(17) 1 0
In2 In0+ 2 e 0.95400(7) 0.25 0.83627(6) 0.00499(17) 1 0
In3 In0+ 2 e 0.81312(7) -0.25 1.03287(6) 0.00490(17) 1 0
In4 In0+ 2 e 0.22825(7) -0.25 0.71717(5) 0.00386(17) 1 0
P1 P0+ 2 e 0.7963(3) -0.25 0.8329(2) 0.0047(5) 1 0
P2 P0+ 2 e 0.6090(3) 0.25 0.6055(2) 0.0047(5) 1 0
P3 P0+ 2 e 0.0781(3) -0.75 0.6624(2) 0.0057(5) 1 0
P4 P0+ 2 e 0.3241(3) -0.25 0.9114(2) 0.0054(5) 1 0
loop_
_atom_site_aniso_label
_atom_site_aniso_type_symbol
_atom_site_aniso_U_11
_atom_site_aniso_U_22
_atom_site_aniso_U_33
_atom_site_aniso_U_12
_atom_site_aniso_U_13
_atom_site_aniso_U_23
Ba1 Ba0+ 0.0060(3) 0.0036(3) 0.0057(3) 0. 0.0014(2) 0.
Ba2 Ba0+ 0.0046(3) 0.0040(3) 0.0071(3) 0. 0.0010(2) 0.
In1 In0+ 0.0044(3) 0.0037(4) 0.0053(3) 0. 0.0015(3) 0.
In2 In0+ 0.0053(3) 0.0045(4) 0.0052(3) 0. 0.0007(3) 0.
In3 In0+ 0.0052(3) 0.0049(4) 0.0045(3) 0. 0.0001(2) 0.
In4 In0+ 0.0038(3) 0.0033(3) 0.0046(3) 0. 0.0005(2) 0.
P1 P0+ 0.0059(12) 0.0048(13) 0.0032(12) 0. 0.0000(9) 0.
P2 P0+ 0.0031(11) 0.0065(13) 0.0042(12) 0. -0.0008(9) 0.
P3 P0+ 0.0064(12) 0.0046(13) 0.0064(12) 0. 0.0021(9) 0.
P4 P0+ 0.0036(12) 0.0052(13) 0.0074(12) 0. 0.0007(9) 0.
#End of TTdata_260564-ICSD