
data_26070-ICSD
_database_code_ICSD 26070
_audit_creation_date 1986-10-10
_audit_update_record 2007-04-01
_chemical_name_systematic 'Titanium(III) chloride - gamma'
_chemical_formula_structural 'Ti Cl3'
_chemical_formula_sum 'Cl3 Ti1'
_exptl_crystal_density_diffrn 2.71
_cell_length_a 6.14
_cell_length_b 6.14
_cell_length_c 17.4
_cell_angle_alpha 90.
_cell_angle_beta 90.
_cell_angle_gamma 120.
_cell_volume 568.09
_cell_formula_units_Z 6
_symmetry_space_group_name_H-M 'P 31 1 2'
_symmetry_Int_Tables_number 151
loop_
_symmetry_equiv_pos_site_id
_symmetry_equiv_pos_as_xyz
1 '-x+y, y, -z+1/3'
2 '-y, -x, -z+2/3'
3 'x, x-y, -z'
4 '-x+y, -x, z+2/3'
5 '-y, x-y, z+1/3'
6 'x, y, z'
loop_
_atom_type_symbol
_atom_type_oxidation_number
Ti3+ 3
Cl1- -1
loop_
_atom_site_label
_atom_site_type_symbol
_atom_site_symmetry_multiplicity
_atom_site_Wyckoff_symbol
_atom_site_fract_x
_atom_site_fract_y
_atom_site_fract_z
_atom_site_B_iso_or_equiv
_atom_site_occupancy
_atom_site_attached_hydrogens
Ti1 Ti3+ 3 a 0.1111 -.1111 0.3333 . 1. 0
Ti2 Ti3+ 3 a 0.7778 -.7778 0.3333 . 1. 0
Cl1 Cl1- 6 c 0.1111 -.1111 0.5873 . 1. 0
Cl2 Cl1- 6 c 0.4444 -.4444 0.5873 . 1. 0
Cl3 Cl1- 6 c 0.7778 -.7778 0.5873 . 1. 0
