
#(C) 2017 by FIZ Karlsruhe - Leibniz Institute for Information Infrastructure.  All rights reserved.
data_261793-ICSD
_database_code_ICSD 261793
_audit_creation_date 2012-02-01
_chemical_name_systematic 'Sodium thallium (2/2)'
_chemical_formula_structural 'Na2 Tl2'
_chemical_formula_sum 'Na2 Tl2'
_chemical_name_structure_type AlCe
_exptl_crystal_density_diffrn 7.32
_publ_section_title
'Revisiting the Zintl-Klemm concept: A2 Au Bi (A = Li or Na)'
loop_
_citation_id
_citation_journal_full
_citation_year
_citation_journal_volume
_citation_page_first
_citation_page_last
_citation_journal_id_ASTM
primary 'European Journal of Inorganic Chemistry  (online)' 2011 2011 3989 3998
EJICFO
loop_
_publ_author_name
'Wang Fei'
'Miller G.J.'
_cell_length_a 8.6713
_cell_length_b 7.7969
_cell_length_c 6.1071
_cell_angle_alpha 90.
_cell_angle_beta 90.
_cell_angle_gamma 90.
_cell_volume 412.9
_cell_formula_units_Z 4
_symmetry_space_group_name_H-M 'C m c m'
_symmetry_Int_Tables_number 63
loop_
_symmetry_equiv_pos_site_id
_symmetry_equiv_pos_as_xyz
1 '-x, y, -z+1/2'
2 '-x, -y, z+1/2'
3 '-x, y, z'
4 '-x, -y, -z'
5 'x, -y, z+1/2'
6 'x, y, -z+1/2'
7 'x, -y, -z'
8 'x, y, z'
9 '-x+1/2, y+1/2, -z+1/2'
10 '-x+1/2, -y+1/2, z+1/2'
11 '-x+1/2, y+1/2, z'
12 '-x+1/2, -y+1/2, -z'
13 'x+1/2, -y+1/2, z+1/2'
14 'x+1/2, y+1/2, -z+1/2'
15 'x+1/2, -y+1/2, -z'
16 'x+1/2, y+1/2, z'
loop_
_atom_type_symbol
_atom_type_oxidation_number
Na0+ 0
Tl0+ 0
loop_
_atom_site_label
_atom_site_type_symbol
_atom_site_symmetry_multiplicity
_atom_site_Wyckoff_symbol
_atom_site_fract_x
_atom_site_fract_y
_atom_site_fract_z
_atom_site_B_iso_or_equiv
_atom_site_occupancy
_atom_site_attached_hydrogens
Na1 Na0+ 8 g 0.1885 0.3154 0.25 . 1. 0
Tl1 Tl0+ 4 a 0.5 0.5 0 . 1. 0
Tl2 Tl0+ 4 c 0.5 0.1355 0.25 . 1. 0
#End of TTdata_261793-ICSD