
#(C) 2017 by FIZ Karlsruhe - Leibniz Institute for Information Infrastructure.  All rights reserved.
data_261981-ICSD
_database_code_ICSD 261981
_audit_creation_date 2012-02-01
_chemical_name_systematic 'Lanthanum zinc arsenide (1/3/3)'
_chemical_formula_structural 'La Zn3 As3'
_chemical_formula_sum 'As3 La1 Zn3'
_exptl_crystal_density_diffrn 6.2
_cell_measurement_temperature 296.
_publ_section_title

;
Ternary rare-earth arsenides RE Zn3 As3 (RE = La-Nd, Sm) and RE Cd3 As3 (RE =
La-Pr)
;
loop_
_citation_id
_citation_journal_full
_citation_year
_citation_journal_volume
_citation_page_first
_citation_page_last
_citation_journal_id_ASTM
primary 'Inorganic Chemistry' 2011 50 11152 11161 INOCAJ
loop_
_publ_author_name
'Stoyko, S.S.'
'Mar, A.'
_cell_length_a 12.5935(8)
_cell_length_b 4.1054(3)
_cell_length_c 11.5968(7)
_cell_angle_alpha 90.
_cell_angle_beta 90.
_cell_angle_gamma 90.
_cell_volume 599.57
_cell_formula_units_Z 4
_symmetry_space_group_name_H-M 'P n m a'
_symmetry_Int_Tables_number 62
_refine_ls_R_factor_all 0.0162
loop_
_symmetry_equiv_pos_site_id
_symmetry_equiv_pos_as_xyz
1 'x+1/2, y, -z+1/2'
2 'x, -y+1/2, z'
3 '-x+1/2, y+1/2, z+1/2'
4 '-x, -y, -z'
5 '-x+1/2, -y, z+1/2'
6 '-x, y+1/2, -z'
7 'x+1/2, -y+1/2, -z+1/2'
8 'x, y, z'
loop_
_atom_type_symbol
_atom_type_oxidation_number
La3+ 3
Zn2+ 2
As3- -3
loop_
_atom_site_label
_atom_site_type_symbol
_atom_site_symmetry_multiplicity
_atom_site_Wyckoff_symbol
_atom_site_fract_x
_atom_site_fract_y
_atom_site_fract_z
_atom_site_B_iso_or_equiv
_atom_site_occupancy
_atom_site_attached_hydrogens
La1 La3+ 4 c 0.337437(15) 0.25 0.941136(16) 0.01134(5) 1 0
Zn1 Zn2+ 4 c 0.06718(3) 0.25 0.03856(4) 0.01375(8) 1 0
Zn2 Zn2+ 4 c 0.27666(3) 0.25 0.65419(4) 0.01440(9) 1 0
Zn3 Zn2+ 4 c 0.44741(3) 0.25 0.23536(4) 0.01444(9) 1 0
As1 As3- 4 c 0.08360(3) 0.25 0.61627(3) 0.01015(7) 1 0
As2 As3- 4 c 0.14692(3) 0.25 0.23923(3) 0.01013(7) 1 0
As3 As3- 4 c 0.36050(3) 0.25 0.43440(3) 0.01079(7) 1 0
loop_
_atom_site_aniso_label
_atom_site_aniso_type_symbol
_atom_site_aniso_U_11
_atom_site_aniso_U_22
_atom_site_aniso_U_33
_atom_site_aniso_U_12
_atom_site_aniso_U_13
_atom_site_aniso_U_23
La1 La3+ 0.01418(9) 0.00870(8) 0.01114(9) 0. -0.00012(6) 0.
Zn1 Zn2+ 0.01316(17) 0.01359(18) 0.01451(18) 0. -0.00105(13) 0.
Zn2 Zn2+ 0.01481(17) 0.01179(17) 0.01661(19) 0. -0.00482(14) 0.
Zn3 Zn2+ 0.01674(19) 0.01341(18) 0.01316(18) 0. -0.00149(14) 0.
As1 As3- 0.01015(14) 0.00910(14) 0.01121(14) 0. 0.00080(10) 0.
As2 As3- 0.01157(14) 0.00841(14) 0.01042(14) 0. -0.00011(10) 0.
As3 As3- 0.01007(14) 0.01121(15) 0.01109(15) 0. 0.00054(10) 0.
#End of TTdata_261981-ICSD