
#(C) 2017 by FIZ Karlsruhe - Leibniz Institute for Information Infrastructure.  All rights reserved.
data_261925-ICSD
_database_code_ICSD 261925
_audit_creation_date 2012-02-01
_chemical_name_systematic 'Pentalanthanum dizinc stannide'
_chemical_formula_structural 'La5 Sn Zn2'
_chemical_formula_sum 'La5 Sn1 Zn2'
_chemical_name_structure_type Ho5Au2Sb
_exptl_crystal_density_diffrn 6.31
_cell_measurement_temperature 293.
_publ_section_title 'La5 Zn2 Sn'
loop_
_citation_id
_citation_journal_full
_citation_year
_citation_journal_volume
_citation_page_first
_citation_page_last
_citation_journal_id_ASTM
primary 'Acta Crystallographica, Section E. Structure Reports Online' 2011 67
i65 i65 ACSEBH
loop_
_publ_author_name
'Oshchapovsky, I.'
'Pavlyuk, V.'
'Dmytriv, G.'
'Chumak, I.'
'Ehrenberg, H.'
_cell_length_a 8.3277(12)
_cell_length_b 8.3277(12)
_cell_length_c 14.334(3)
_cell_angle_alpha 90.
_cell_angle_beta 90.
_cell_angle_gamma 90.
_cell_volume 994.07
_cell_formula_units_Z 4
_symmetry_space_group_name_H-M 'I 4/m c m'
_symmetry_Int_Tables_number 140
_refine_ls_R_factor_all 0.0265
loop_
_symmetry_equiv_pos_site_id
_symmetry_equiv_pos_as_xyz
1 'y, x, -z+1/2'
2 '-y, -x, -z+1/2'
3 '-y, x, -z'
4 'y, -x, -z'
5 'x, -y, -z+1/2'
6 '-x, y, -z+1/2'
7 'x, y, -z'
8 '-x, -y, -z'
9 '-y, -x, z+1/2'
10 'y, x, z+1/2'
11 'y, -x, z'
12 '-y, x, z'
13 '-x, y, z+1/2'
14 'x, -y, z+1/2'
15 '-x, -y, z'
16 'x, y, z'
17 'y+1/2, x+1/2, -z'
18 '-y+1/2, -x+1/2, -z'
19 '-y+1/2, x+1/2, -z+1/2'
20 'y+1/2, -x+1/2, -z+1/2'
21 'x+1/2, -y+1/2, -z'
22 '-x+1/2, y+1/2, -z'
23 'x+1/2, y+1/2, -z+1/2'
24 '-x+1/2, -y+1/2, -z+1/2'
25 '-y+1/2, -x+1/2, z'
26 'y+1/2, x+1/2, z'
27 'y+1/2, -x+1/2, z+1/2'
28 '-y+1/2, x+1/2, z+1/2'
29 '-x+1/2, y+1/2, z'
30 'x+1/2, -y+1/2, z'
31 '-x+1/2, -y+1/2, z+1/2'
32 'x+1/2, y+1/2, z+1/2'
loop_
_atom_type_symbol
_atom_type_oxidation_number
La0+ 0
Zn0+ 0
Sn0+ 0
loop_
_atom_site_label
_atom_site_type_symbol
_atom_site_symmetry_multiplicity
_atom_site_Wyckoff_symbol
_atom_site_fract_x
_atom_site_fract_y
_atom_site_fract_z
_atom_site_B_iso_or_equiv
_atom_site_occupancy
_atom_site_attached_hydrogens
La1 La0+ 16 l 0.66685(5) 0.16685(5) 0.14853(4) 0.02054(16) 1 0
La2 La0+ 4 c 0. 0. 0. 0.0357(3) 1 0
Zn1 Zn0+ 8 h 0.12383(12) 0.62383(12) 0. 0.0139(3) 1 0
Sn1 Sn0+ 4 a 0. 0. 0.25 0.0145(2) 1 0
loop_
_atom_site_aniso_label
_atom_site_aniso_type_symbol
_atom_site_aniso_U_11
_atom_site_aniso_U_22
_atom_site_aniso_U_33
_atom_site_aniso_U_12
_atom_site_aniso_U_13
_atom_site_aniso_U_23
La1 La0+ 0.01937(19) 0.01937(19) 0.0229(3) 0.00430(19) 0. 0.
La2 La0+ 0.0291(4) 0.0291(4) 0.0490(8) 0. 0. 0.
Zn1 Zn0+ 0.0123(4) 0.0123(4) 0.0171(7) 0.0013(5) 0. 0.
Sn1 Sn0+ 0.0129(3) 0.0129(3) 0.0177(5) 0. 0. 0.
#End of TTdata_261925-ICSD