
#(C) 2017 by FIZ Karlsruhe - Leibniz Institute for Information Infrastructure.  All rights reserved.
data_262063-ICSD
_database_code_ICSD 262063
_audit_creation_date 2012-02-01
_audit_update_record 2013-08-01
_chemical_name_systematic 'Potassium thallium'
_chemical_formula_structural 'K Tl'
_chemical_formula_sum 'K1 Tl1'
_chemical_name_structure_type KTl
_exptl_crystal_density_diffrn 5.16
_publ_section_title 'Revisiting the Zintl-Klemm concept: alkali metal trielides'
loop_
_citation_id
_citation_journal_full
_citation_year
_citation_journal_volume
_citation_page_first
_citation_page_last
_citation_journal_id_ASTM
primary 'Inorganic Chemistry' 2011 50 7625 7636 INOCAJ
loop_
_publ_author_name
'Wang Fei'
'Miller G.J.'
_cell_length_a 15.329(4)
_cell_length_b 15.069(4)
_cell_length_c 8.137(2)
_cell_angle_alpha 90.
_cell_angle_beta 90.
_cell_angle_gamma 90.
_cell_volume 1879.59
_cell_formula_units_Z 24
_symmetry_space_group_name_H-M 'C m c e'
_symmetry_Int_Tables_number 64
loop_
_symmetry_equiv_pos_site_id
_symmetry_equiv_pos_as_xyz
1 '-x, -y+1/2, z+1/2'
2 '-x, y+1/2, -z+1/2'
3 '-x, y, z'
4 '-x, -y, -z'
5 'x, y+1/2, -z+1/2'
6 'x, -y+1/2, z+1/2'
7 'x, -y, -z'
8 'x, y, z'
9 '-x+1/2, -y, z+1/2'
10 '-x+1/2, y, -z+1/2'
11 '-x+1/2, y+1/2, z'
12 '-x+1/2, -y+1/2, -z'
13 'x+1/2, y, -z+1/2'
14 'x+1/2, -y, z+1/2'
15 'x+1/2, -y+1/2, -z'
16 'x+1/2, y+1/2, z'
loop_
_atom_type_symbol
_atom_type_oxidation_number
K0+ 0
Tl0+ 0
loop_
_atom_site_label
_atom_site_type_symbol
_atom_site_symmetry_multiplicity
_atom_site_Wyckoff_symbol
_atom_site_fract_x
_atom_site_fract_y
_atom_site_fract_z
_atom_site_B_iso_or_equiv
_atom_site_occupancy
_atom_site_attached_hydrogens
K1 K0+ 8 e 0.25 0.2205(6) 0.25 . 1. 0
K2 K0+ 8 d -0.1774(6) 0 0 . 1. 0
K3 K0+ 8 f 0 0.2005(6) -0.0751(9) . 1. 0
Tl1 Tl0+ 16 g 0.11306(8) 0.39558(6) 0.0689(1) . 1. 0
Tl2 Tl0+ 8 f 0 0.5438(1) 0.2193(1) . 1. 0
#End of TTdata_262063-ICSD