
#(C) 2017 by FIZ Karlsruhe - Leibniz Institute for Information Infrastructure.  All rights reserved.
data_262431-ICSD
_database_code_ICSD 262431
_audit_creation_date 2012-08-01
_chemical_name_systematic 'Germanium lanthanum lithium (3/2/2)'
_chemical_formula_structural 'Ge3 La2 Li2'
_chemical_formula_sum 'Ge3 La2 Li2'
_chemical_name_structure_type Ce2Li2Ge3
_exptl_crystal_density_diffrn 5.61
_cell_measurement_temperature 200.
_publ_section_title

;
Closely related rare-earth metal germanides RE2 Li2 Ge3 and RE3 Li4 Ge4 (RE =
La - Nd, Sm): synthesis, crystal chemistry, and magnetic properties
;
loop_
_citation_id
_citation_journal_full
_citation_year
_citation_journal_volume
_citation_page_first
_citation_page_last
_citation_journal_id_ASTM
primary 'Inorganic Chemistry' 2012 51 3119 3129 INOCAJ
loop_
_publ_author_name
'Guo Shengping'
'You Taesoo'
'Bobev, S.'
_cell_length_a 4.5311(19)
_cell_length_b 19.001(8)
_cell_length_c 7.008(3)
_cell_angle_alpha 90.
_cell_angle_beta 90.
_cell_angle_gamma 90.
_cell_volume 603.36
_cell_formula_units_Z 4
_symmetry_space_group_name_H-M 'C m c m'
_symmetry_Int_Tables_number 63
_refine_ls_R_factor_all 0.0351
loop_
_symmetry_equiv_pos_site_id
_symmetry_equiv_pos_as_xyz
1 '-x, y, -z+1/2'
2 '-x, -y, z+1/2'
3 '-x, y, z'
4 '-x, -y, -z'
5 'x, -y, z+1/2'
6 'x, y, -z+1/2'
7 'x, -y, -z'
8 'x, y, z'
9 '-x+1/2, y+1/2, -z+1/2'
10 '-x+1/2, -y+1/2, z+1/2'
11 '-x+1/2, y+1/2, z'
12 '-x+1/2, -y+1/2, -z'
13 'x+1/2, -y+1/2, z+1/2'
14 'x+1/2, y+1/2, -z+1/2'
15 'x+1/2, -y+1/2, -z'
16 'x+1/2, y+1/2, z'
loop_
_atom_type_symbol
_atom_type_oxidation_number
La0+ 0
Ge0+ 0
Li0+ 0
loop_
_atom_site_label
_atom_site_type_symbol
_atom_site_symmetry_multiplicity
_atom_site_Wyckoff_symbol
_atom_site_fract_x
_atom_site_fract_y
_atom_site_fract_z
_atom_site_B_iso_or_equiv
_atom_site_occupancy
_atom_site_attached_hydrogens
La1 La0+ 4 c 0. 0.44819(5) 0.25 0.0103(3) 1 0
La2 La0+ 4 c 0. 0.65983(5) 0.25 0.0118(3) 1 0
Ge1 Ge0+ 8 f 0. 0.06051(7) 0.06994(19) 0.0113(3) 1 0
Ge2 Ge0+ 4 c 0. 0.28014(10) 0.25 0.0130(5) 1 0
Li1 Li0+ 8 f 0. 0.1898(10) 0.560(3) 0.006(4) 1 0
loop_
_atom_site_aniso_label
_atom_site_aniso_type_symbol
_atom_site_aniso_U_11
_atom_site_aniso_U_22
_atom_site_aniso_U_33
_atom_site_aniso_U_12
_atom_site_aniso_U_13
_atom_site_aniso_U_23
La1 La0+ 0.0090(5) 0.0109(5) 0.0110(5) 0. 0. 0.
La2 La0+ 0.0112(5) 0.0103(6) 0.0139(6) 0. 0. 0.
Ge1 Ge0+ 0.0120(7) 0.0111(7) 0.0108(7) 0. 0. -0.0004(5)
Ge2 Ge0+ 0.0117(10) 0.0116(10) 0.0156(10) 0. 0. 0.
#End of TTdata_262431-ICSD