
data_26249-ICSD
_database_code_ICSD 26249
_audit_creation_date 1984-09-05
_audit_update_record 2010-08-01
_chemical_name_systematic 'Tantalum(IV) selenide - 4s(c)'
_chemical_formula_structural 'Ta Se2'
_chemical_formula_sum 'Se2 Ta1'
_chemical_name_structure_type TaSe2(P63mc)
_exptl_crystal_density_diffrn 8.62
_cell_length_a 3.436
_cell_length_b 3.436
_cell_length_c 25.532
_cell_angle_alpha 90.
_cell_angle_beta 90.
_cell_angle_gamma 120.
_cell_volume 261.05
_cell_formula_units_Z 4
_symmetry_space_group_name_H-M 'P 63 m c'
_symmetry_Int_Tables_number 186
loop_
_symmetry_equiv_pos_site_id
_symmetry_equiv_pos_as_xyz
1 '-x, -x+y, z+1/2'
2 'x-y, -y, z+1/2'
3 'y, x, z+1/2'
4 'x-y, x, z+1/2'
5 'y, -x+y, z+1/2'
6 '-x, -y, z+1/2'
7 'x, x-y, z'
8 '-x+y, y, z'
9 '-y, -x, z'
10 '-x+y, -x, z'
11 '-y, x-y, z'
12 'x, y, z'
loop_
_atom_type_symbol
_atom_type_oxidation_number
Ta4+ 4
Se2- -2
loop_
_atom_site_label
_atom_site_type_symbol
_atom_site_symmetry_multiplicity
_atom_site_Wyckoff_symbol
_atom_site_fract_x
_atom_site_fract_y
_atom_site_fract_z
_atom_site_B_iso_or_equiv
_atom_site_occupancy
_atom_site_attached_hydrogens
Ta1 Ta4+ 2 b 0.3333 0.6667 0.628(2) . 1. 0
Ta2 Ta4+ 2 b 0.3333 0.6667 0.881 . 1. 0
Se1 Se2- 2 a 0 0 0.050(4) . 1. 0
Se2 Se2- 2 a 0 0 0.178(3) . 1. 0
Se3 Se2- 2 b 0.3333 0.6667 0.307(5) . 1. 0
Se4 Se2- 2 b 0.3333 0.6667 0.442(4) . 1. 0
