
#(C) 2017 by FIZ Karlsruhe - Leibniz Institute for Information Infrastructure.  All rights reserved.
data_262413-ICSD
_database_code_ICSD 262413
_audit_creation_date 2012-08-01
_audit_update_record 2013-08-01
_chemical_name_systematic 'Strontium zinc arsenide (2/2/3)'
_chemical_formula_structural 'Sr2 Zn2 As3'
_chemical_formula_sum 'As3 Sr2 Zn2'
_chemical_name_structure_type Sr2Zn2As3
_exptl_crystal_density_diffrn 5.28
_cell_measurement_temperature 173.
_publ_section_title

;
Ternary arsenides A2 Zn2 As3 (A = Sr, Eu) and their stuffed derivatives A2 Ag2
Zn As3
;
loop_
_citation_id
_citation_journal_full
_citation_year
_citation_journal_volume
_citation_page_first
_citation_page_last
_citation_journal_id_ASTM
primary 'Inorganic Chemistry' 2012 51 2621 2628 INOCAJ
loop_
_publ_author_name
'Stoyko, S.S.'
'Khatun, M.'
'Mar, A.'
_cell_length_a 16.212(5)
_cell_length_b 4.2754(12)
_cell_length_c 11.955(3)
_cell_angle_alpha 90.
_cell_angle_beta 126.271(3)
_cell_angle_gamma 90.
_cell_volume 668.07
_cell_formula_units_Z 4
_symmetry_space_group_name_H-M 'C 1 2/m 1'
_symmetry_Int_Tables_number 12
_refine_ls_R_factor_all 0.0216
loop_
_symmetry_equiv_pos_site_id
_symmetry_equiv_pos_as_xyz
1 '-x, y, -z'
2 '-x, -y, -z'
3 'x, -y, z'
4 'x, y, z'
5 '-x+1/2, y+1/2, -z'
6 '-x+1/2, -y+1/2, -z'
7 'x+1/2, -y+1/2, z'
8 'x+1/2, y+1/2, z'
loop_
_atom_type_symbol
_atom_type_oxidation_number
Sr2+ 2
Zn2+ 2
As2- -2
As3- -3
loop_
_atom_site_label
_atom_site_type_symbol
_atom_site_symmetry_multiplicity
_atom_site_Wyckoff_symbol
_atom_site_fract_x
_atom_site_fract_y
_atom_site_fract_z
_atom_site_B_iso_or_equiv
_atom_site_occupancy
_atom_site_attached_hydrogens
Sr1 Sr2+ 4 i 0.26694(3) 0. 0.66409(4) 0.00711(8) 1 0
Sr2 Sr2+ 4 i 0.39248(3) 0. 0.04821(4) 0.00766(9) 1 0
Zn1 Zn2+ 4 i 0.03802(4) 0. 0.31432(5) 0.00852(10) 1 0
Zn2 Zn2+ 4 i 0.41130(4) 0. 0.34890(5) 0.00893(10) 1 0
As1 As2- 4 i 0.07517(3) 0. 0.12467(4) 0.00728(9) 1 0
As2 As3- 4 i 0.15194(3) 0. 0.79726(4) 0.00684(9) 1 0
As3 As3- 4 i 0.38920(3) 0. 0.54186(4) 0.00636(9) 1 0
loop_
_atom_site_aniso_label
_atom_site_aniso_type_symbol
_atom_site_aniso_U_11
_atom_site_aniso_U_22
_atom_site_aniso_U_33
_atom_site_aniso_U_12
_atom_site_aniso_U_13
_atom_site_aniso_U_23
Sr1 Sr2+ 0.00657(17) 0.00802(16) 0.00580(17) 0. 0.00315(15) 0.
Sr2 Sr2+ 0.00864(17) 0.00767(16) 0.00671(18) 0. 0.00456(15) 0.
Zn1 Zn2+ 0.0074(2) 0.0085(2) 0.0073(2) 0. 0.00304(19) 0.
Zn2 Zn2+ 0.0102(2) 0.0092(2) 0.0083(2) 0. 0.00601(19) 0.
As1 As2- 0.00667(18) 0.00838(18) 0.00537(19) 0. 0.00278(16) 0.
As2 As3- 0.00636(18) 0.00740(18) 0.00659(19) 0. 0.00373(16) 0.
As3 As3- 0.00630(18) 0.00674(17) 0.00550(19) 0. 0.00320(16) 0.
#End of TTdata_262413-ICSD