
#(C) 2017 by FIZ Karlsruhe - Leibniz Institute for Information Infrastructure.  All rights reserved.
data_26259-ICSD
_database_code_ICSD 26259
_audit_creation_date 1980-01-01
_chemical_name_systematic 'Rubidium dithioplatinate(II)'
_chemical_formula_structural 'Rb2 Pt S2'
_chemical_formula_sum 'Pt1 Rb2 S2'
_chemical_name_structure_type K2PtS2
_exptl_crystal_density_diffrn 5.42
_publ_section_title 'Darstellung und Struktur von K2 Pt S2 und Rb2 Pt S2'
loop_
_citation_id
_citation_journal_full
_citation_year
_citation_journal_volume
_citation_page_first
_citation_page_last
_citation_journal_id_ASTM
primary 'Journal of the Less-Common Metals' 1972 27 73 79 JCOMAH
loop_
_publ_author_name
'Bronger, W.'
'Guenther, O.'
_cell_length_a 9.87
_cell_length_b 7.33
_cell_length_c 3.64
_cell_angle_alpha 90.
_cell_angle_beta 90.
_cell_angle_gamma 90.
_cell_volume 263.34
_cell_formula_units_Z 2
_symmetry_space_group_name_H-M 'I m m m'
_symmetry_Int_Tables_number 71
loop_
_symmetry_equiv_pos_site_id
_symmetry_equiv_pos_as_xyz
1 'x, y, -z'
2 'x, -y, z'
3 '-x, y, z'
4 '-x, -y, -z'
5 '-x, -y, z'
6 '-x, y, -z'
7 'x, -y, -z'
8 'x, y, z'
9 'x+1/2, y+1/2, -z+1/2'
10 'x+1/2, -y+1/2, z+1/2'
11 '-x+1/2, y+1/2, z+1/2'
12 '-x+1/2, -y+1/2, -z+1/2'
13 '-x+1/2, -y+1/2, z+1/2'
14 '-x+1/2, y+1/2, -z+1/2'
15 'x+1/2, -y+1/2, -z+1/2'
16 'x+1/2, y+1/2, z+1/2'
loop_
_atom_type_symbol
_atom_type_oxidation_number
Pt2+ 2
Rb1+ 1
S2- -2
loop_
_atom_site_label
_atom_site_type_symbol
_atom_site_symmetry_multiplicity
_atom_site_Wyckoff_symbol
_atom_site_fract_x
_atom_site_fract_y
_atom_site_fract_z
_atom_site_B_iso_or_equiv
_atom_site_occupancy
_atom_site_attached_hydrogens
Pt1 Pt2+ 2 a 0 0 0 . 1. 0
Rb1 Rb1+ 4 f 0.185 0.5 0 . 1. 0
S1 S2- 4 h 0 0.205 0.5 . 1. 0
#End of TTdata_26259-ICSD