
#(C) 2017 by FIZ Karlsruhe - Leibniz Institute for Information Infrastructure.  All rights reserved.
data_26253-ICSD
_database_code_ICSD 26253
_audit_creation_date 1980-01-01
_audit_update_record 2015-02-01
_chemical_name_systematic 'Copper arsenide (5/2)'
_chemical_formula_structural 'Cu5 As2'
_chemical_formula_sum 'As2 Cu5'
_chemical_name_structure_type Ga2Mg5
_chemical_name_mineral Koutekite
_exptl_crystal_density_diffrn 8.17
_publ_section_title 'Zur Struktur der Mischung Kupfer-Arsen'
loop_
_citation_id
_citation_journal_full
_citation_year
_citation_journal_volume
_citation_page_first
_citation_page_last
_citation_journal_id_ASTM
primary 'Journal of the Less-Common Metals' 1971 23 231 236 JCOMAH
loop_
_publ_author_name
'Liebisch, W.'
'Schubert, K.'
_cell_length_a 5.977(1)
_cell_length_b 11.577(2)
_cell_length_c 5.491(1)
_cell_angle_alpha 90.
_cell_angle_beta 90.
_cell_angle_gamma 90.
_cell_volume 379.95
_cell_formula_units_Z 4
_symmetry_space_group_name_H-M 'I b a m'
_symmetry_Int_Tables_number 72
_refine_ls_R_factor_all 0.22
loop_
_symmetry_equiv_pos_site_id
_symmetry_equiv_pos_as_xyz
1 '-x, y, z+1/2'
2 'x, -y, z+1/2'
3 'x, y, -z'
4 '-x, -y, -z'
5 'x, -y, -z+1/2'
6 '-x, y, -z+1/2'
7 '-x, -y, z'
8 'x, y, z'
9 '-x+1/2, y+1/2, z'
10 'x+1/2, -y+1/2, z'
11 'x+1/2, y+1/2, -z+1/2'
12 '-x+1/2, -y+1/2, -z+1/2'
13 'x+1/2, -y+1/2, -z'
14 '-x+1/2, y+1/2, -z'
15 '-x+1/2, -y+1/2, z+1/2'
16 'x+1/2, y+1/2, z+1/2'
loop_
_atom_type_symbol
_atom_type_oxidation_number
Cu0+ 0
As0+ 0
loop_
_atom_site_label
_atom_site_type_symbol
_atom_site_symmetry_multiplicity
_atom_site_Wyckoff_symbol
_atom_site_fract_x
_atom_site_fract_y
_atom_site_fract_z
_atom_site_B_iso_or_equiv
_atom_site_occupancy
_atom_site_attached_hydrogens
Cu1 Cu0+ 8 j 0.335 0.409 0 1.1 1. 0
Cu2 Cu0+ 8 g 0 0.264 0.25 0.8 1. 0
Cu3 Cu0+ 4 b 0.5 0 0.25 0.8 1. 0
As1 As0+ 8 j 0.238 0.118 0 0 1. 0
#End of TTdata_26253-ICSD