
data_262842-ICSD
_database_code_ICSD 262842
_audit_creation_date 2012-08-01
_chemical_name_systematic 'Yttrium barium iron oxide (1/1/4/7)'
_chemical_formula_structural 'Y Ba Fe4 O7'
_chemical_formula_sum 'Ba1 Fe4 O7 Y1'
_exptl_crystal_density_diffrn 5.22
_cell_length_a 6.2676(1)
_cell_length_b 6.2676(1)
_cell_length_c 9.1030(1)
_cell_angle_alpha 90.
_cell_angle_beta 90.
_cell_angle_gamma 90.
_cell_volume 357.59
_cell_formula_units_Z 2
_symmetry_space_group_name_H-M 'I -4'
_symmetry_Int_Tables_number 82
_refine_ls_R_factor_all 0.0276
loop_
_symmetry_equiv_pos_site_id
_symmetry_equiv_pos_as_xyz
1 '-y, x, -z'
2 'y, -x, -z'
3 '-x, -y, z'
4 'x, y, z'
5 '-y+1/2, x+1/2, -z+1/2'
6 'y+1/2, -x+1/2, -z+1/2'
7 '-x+1/2, -y+1/2, z+1/2'
8 'x+1/2, y+1/2, z+1/2'
loop_
_atom_type_symbol
_atom_type_oxidation_number
Y3+ 3
Ba2+ 2
Fe2+ 2.25
O2- -2
loop_
_atom_site_label
_atom_site_type_symbol
_atom_site_symmetry_multiplicity
_atom_site_Wyckoff_symbol
_atom_site_fract_x
_atom_site_fract_y
_atom_site_fract_z
_atom_site_B_iso_or_equiv
_atom_site_occupancy
_atom_site_attached_hydrogens
Y1 Y3+ 2 a 0 0 0 0.45 1. 0
Ba1 Ba2+ 2 d 0 0.5 0.75 1.33 1. 0
Fe1 Fe2+ 8 g 0.0174(6) 0.7595(8) 0.3797(8) 1.33 1. 0
O1 O2- 8 g 0.709(2) 0.791(2) 0.020(2) 1.35 1. 0
O2 O2- 4 e 0 0 0.753(2) 2.09 1. 0
O3 O2- 2 c 0 0.5 0.25 1.12 1. 0
loop_
_atom_site_aniso_label
_atom_site_aniso_type_symbol
_atom_site_aniso_U_11
_atom_site_aniso_U_22
_atom_site_aniso_U_33
_atom_site_aniso_U_12
_atom_site_aniso_U_13
_atom_site_aniso_U_23
Y1 Y3+ 0.0054(3) 0.0054(3) 0.0063(7) 0. 0. 0.
Ba1 Ba2+ 0.0189(4) 0.0189(4) 0.0128(6) 0. 0. 0.
Fe1 Fe2+ 0.0138(3) 0.0211(4) 0.0157(4) 0.0024(11) 0.0003(10) 0.0091(13)
O1 O2- 0.010(32) 0.017(2) 0.024(2) -0.0057(12) -0.0067(16) 0.016(2)
O2 O2- 0.012(2) 0.064(3) 0.036(16) -0.002(7) 0. 0.
O3 O2- 0.0203(15) 0.0203(15) 0.002(2) 0. 0. 0.
