
#(C) 2017 by FIZ Karlsruhe - Leibniz Institute for Information Infrastructure.  All rights reserved.
data_263050-ICSD
_database_code_ICSD 263050
_audit_creation_date 2013-02-01
_chemical_name_systematic 'Lead dipalladium tetraoxide'
_chemical_formula_structural 'Pb Pd2 O4'
_chemical_formula_sum 'O4 Pb1 Pd2'
_exptl_crystal_density_diffrn 9.76
_cell_measurement_temperature 112.
_publ_section_title

;
High-pressure synthesis, crystal structure, and properties of Bi Pd2 O4 with
Pd(2+) and Pd(4+) ordering and Pb Pd2 O4
;
loop_
_citation_id
_citation_journal_full
_citation_year
_citation_journal_volume
_citation_page_first
_citation_page_last
_citation_journal_id_ASTM
primary 'Inorganic Chemistry' 2012 51 7650 7656 INOCAJ
loop_
_publ_author_name
'Yi Wei'
'Matsushita, Y.'
'Tanaka, M.'
'Belik, A.A.'
_cell_length_a 5.77326(1)
_cell_length_b 9.95633(2)
_cell_length_c 5.73264(1)
_cell_angle_alpha 90.
_cell_angle_beta 90.2185(2)
_cell_angle_gamma 90.
_cell_volume 329.51
_cell_formula_units_Z 4
_symmetry_space_group_name_H-M 'I 1 2/a 1'
_symmetry_Int_Tables_number 15
_refine_ls_R_factor_all 0.03
loop_
_symmetry_equiv_pos_site_id
_symmetry_equiv_pos_as_xyz
1 'x+1/2, -y, z'
2 '-x, -y, -z'
3 '-x+1/2, y, -z'
4 'x, y, z'
5 'x, -y+1/2, z+1/2'
6 '-x+1/2, -y+1/2, -z+1/2'
7 '-x, y+1/2, -z+1/2'
8 'x+1/2, y+1/2, z+1/2'
loop_
_atom_type_symbol
_atom_type_oxidation_number
Pb2+ 2
Pd3+ 3
O2- -2
loop_
_atom_site_label
_atom_site_type_symbol
_atom_site_symmetry_multiplicity
_atom_site_Wyckoff_symbol
_atom_site_fract_x
_atom_site_fract_y
_atom_site_fract_z
_atom_site_B_iso_or_equiv
_atom_site_occupancy
_atom_site_attached_hydrogens
Pb1 Pb2+ 4 e 0.25 0.12475(6) 0 0.034(8) 1. 0
Pd1 Pd3+ 4 b 0 0.5 0 0.103(15) 1. 0
Pd2 Pd3+ 4 c 0.75 0.25 0.75 0.020(15) 1. 0
O1 O2- 8 f 0.0810(9) 0.9224(5) 0.1895(9) 0.10(9) 1. 0
O2 O2- 8 f 0.5643(9) 0.6699(5) 0.8317(9) 0.15(9) 1. 0
#End of TTdata_263050-ICSD