
#(C) 2017 by FIZ Karlsruhe - Leibniz Institute for Information Infrastructure.  All rights reserved.
data_263041-ICSD
_database_code_ICSD 263041
_audit_creation_date 2013-02-01
_audit_update_record 2013-08-01
_chemical_name_systematic 'Niobium ruthenium boride (7/6/8)'
_chemical_formula_structural 'Nb7 Ru6 B8'
_chemical_formula_sum 'B8 Nb7 Ru6'
_chemical_name_structure_type Nb7Ru6B8
_exptl_crystal_density_diffrn 9.11
_publ_section_title

;
TM7 TM'6 B8 (TM = Ta, Nb; TM' = Ru, Rh, Ir): New compounds with [B6] ring
polyanions
;
loop_
_citation_id
_citation_journal_full
_citation_year
_citation_journal_volume
_citation_page_first
_citation_page_last
_citation_journal_id_ASTM
primary 'Inorganic Chemistry' 2012 51 7472 7483 INOCAJ
loop_
_publ_author_name
'Zheng Qiang'
'Kohout, M.'
'Gumeniuk, R.'
'Abramchuk, N.'
'Borrmann, H.'
'Prots', Yu.'
'Burkhardt, U.'
'Schnelle, W.'
'Akselrud, L.'
'Gu Hui'
'Leithe-Jasper, A.'
'Grin', Yu.'
_cell_length_a 9.5061(2)
_cell_length_b 9.5061(2)
_cell_length_c 3.1284(1)
_cell_angle_alpha 90.
_cell_angle_beta 90.
_cell_angle_gamma 120.
_cell_volume 244.83
_cell_formula_units_Z 1
_symmetry_space_group_name_H-M 'P 6/m'
_symmetry_Int_Tables_number 175
_refine_ls_R_factor_all 0.036
loop_
_symmetry_equiv_pos_site_id
_symmetry_equiv_pos_as_xyz
1 '-x+y, -x, -z'
2 '-y, x-y, -z'
3 'x, y, -z'
4 'x-y, x, -z'
5 'y, -x+y, -z'
6 '-x, -y, -z'
7 'x-y, x, z'
8 'y, -x+y, z'
9 '-x, -y, z'
10 '-x+y, -x, z'
11 '-y, x-y, z'
12 'x, y, z'
loop_
_atom_type_symbol
_atom_type_oxidation_number
Nb0+ 0
Ru0+ 0
B0+ 0
loop_
_atom_site_label
_atom_site_type_symbol
_atom_site_symmetry_multiplicity
_atom_site_Wyckoff_symbol
_atom_site_fract_x
_atom_site_fract_y
_atom_site_fract_z
_atom_site_B_iso_or_equiv
_atom_site_occupancy
_atom_site_attached_hydrogens
Nb1 Nb0+ 1 a 0 0 0 0.254(6) 1. 0
Nb2 Nb0+ 6 j 0.08627(3) 0.36335(3) 0 0.328(4) 1. 0
Ru1 Ru0+ 6 k 0.51373(2) 0.15405(2) 0.5 0.283(4) 1. 0
B1 B0+ 2 c 0.3333 0.6667 0 0.46(6) 1. 0
B2 B0+ 6 k 0.2210(3) 0.06961(3) 0.5 0.29(5) 1. 0
loop_
_atom_site_aniso_label
_atom_site_aniso_type_symbol
_atom_site_aniso_B_11
_atom_site_aniso_B_22
_atom_site_aniso_B_33
_atom_site_aniso_B_12
_atom_site_aniso_B_13
_atom_site_aniso_B_23
Nb1 Nb0+ 0.223(7) 0.223(7) 0.240(1) 0.1115 0. 0.
Nb2 Nb0+ 0.252(5) 0.442(5) 0.275(5) 0.161(4) 0. 0.
Ru1 Ru0+ 0.242(4) 0.242(4) 0.366(4) 0.102(3) 0. 0.
B1 B0+ 0.37(7) 0.37(7) 0.5(1) 0.185 0. 0.
B2 B0+ 0.26(5) 0.28(5) 0.41(5) 0.19(5) 0. 0.
#End of TTdata_263041-ICSD