
#(C) 2017 by FIZ Karlsruhe - Leibniz Institute for Information Infrastructure.  All rights reserved.
data_263128-ICSD
_database_code_ICSD 263128
_audit_creation_date 2013-02-01
_chemical_name_systematic 'Titanium(II) trithiogermanate(IV)'
_chemical_formula_structural 'Ti Ge S3'
_chemical_formula_sum 'Ge1 S3 Ti1'
_chemical_name_structure_type NH4CdCl3/Sn2S3
_exptl_crystal_density_diffrn 3.51
_cell_measurement_temperature 290.
_publ_section_title 'Ti Ge S3'
loop_
_citation_id
_citation_journal_full
_citation_year
_citation_journal_volume
_citation_page_first
_citation_page_last
_citation_journal_id_ASTM
primary 'Acta Crystallographica, Section E. Structure Reports Online' 2012 68
i72 i72 ACSEBH
loop_
_publ_author_name
'Kim Pilsoo'
'Yun Hoseop'
_cell_length_a 8.9263(8)
_cell_length_b 3.4673(3)
_cell_length_c 13.2596(15)
_cell_angle_alpha 90
_cell_angle_beta 90
_cell_angle_gamma 90
_cell_volume 410.39
_cell_formula_units_Z 4
_symmetry_space_group_name_H-M 'P n m a'
_symmetry_Int_Tables_number 62
_refine_ls_R_factor_all 0.0322
loop_
_symmetry_equiv_pos_site_id
_symmetry_equiv_pos_as_xyz
1 'x+1/2, y, -z+1/2'
2 'x, -y+1/2, z'
3 '-x+1/2, y+1/2, z+1/2'
4 '-x, -y, -z'
5 '-x+1/2, -y, z+1/2'
6 '-x, y+1/2, -z'
7 'x+1/2, -y+1/2, -z+1/2'
8 'x, y, z'
loop_
_atom_type_symbol
_atom_type_oxidation_number
Ti2+ 2
Ge4+ 4
S2- -2
loop_
_atom_site_label
_atom_site_type_symbol
_atom_site_symmetry_multiplicity
_atom_site_Wyckoff_symbol
_atom_site_fract_x
_atom_site_fract_y
_atom_site_fract_z
_atom_site_B_iso_or_equiv
_atom_site_occupancy
_atom_site_attached_hydrogens
Ti1 Ti2+ 4 c 0.34548(8) -0.25 0.04861(5) 0.0133(3) 1 0
Ge1 Ge4+ 4 c 0.06572(5) 0.25 0.16292(4) 0.0227(2) 1 0
S1 S2- 4 c 0.51690(10) 0.25 0.10897(7) 0.0102(3) 1 0
S2 S2- 4 c 0.23401(12) -0.25 0.21536(7) 0.0146(3) 1 0
S3 S2- 4 c 0.17500(11) 0.25 -0.00866(8) 0.0125(3) 1 0
loop_
_atom_site_aniso_label
_atom_site_aniso_type_symbol
_atom_site_aniso_U_11
_atom_site_aniso_U_22
_atom_site_aniso_U_33
_atom_site_aniso_U_12
_atom_site_aniso_U_13
_atom_site_aniso_U_23
Ti1 Ti2+ 0.0111(4) 0.0142(4) 0.0145(4) 0 0.0012(3) 0
Ge1 Ge4+ 0.0145(3) 0.0144(3) 0.0393(4) 0 0.00642(19) 0
S1 S2- 0.0083(5) 0.0108(5) 0.0116(5) 0 -0.0002(3) 0
S2 S2- 0.0167(5) 0.0124(5) 0.0148(5) 0 0.0045(4) 0
S3 S2- 0.0089(5) 0.0111(5) 0.0174(5) 0 -0.0021(3) 0
#End of TTdata_263128-ICSD