
#(C) 2017 by FIZ Karlsruhe - Leibniz Institute for Information Infrastructure.  All rights reserved.
data_26527-ICSD
_database_code_ICSD 26527
_audit_creation_date 1981-12-31
_audit_update_record 2012-08-01
_chemical_name_systematic 'Dicesium dichlorotetraaquachromium chloride'
_chemical_formula_structural 'Cs2 (Cr (H2 O)4) Cl5'
_chemical_formula_sum 'H8 Cl5 Cr1 Cs2 O4'
_chemical_name_structure_type Cs2VCl5(H2O)4
_exptl_crystal_density_diffrn 2.6
_publ_section_title

;
Crystal structure and low-temperature crystal spectra of dicesium
dichlorotetraaquochromium(III) chloride
;
loop_
_citation_id
_citation_journal_full
_citation_year
_citation_journal_volume
_citation_page_first
_citation_page_last
_citation_journal_id_ASTM
primary 'Inorganic Chemistry' 1981 20 1566 1570 INOCAJ
loop_
_publ_author_name
'McCarthy, P.J.'
'Lauffenburger, J.C.'
'Skonezny, P.M.'
'Rohrer, D.C.'
_cell_length_a 17.6040(10)
_cell_length_b 6.14
_cell_length_c 6.979(1)
_cell_angle_alpha 90.
_cell_angle_beta 106.040(7)
_cell_angle_gamma 90.
_cell_volume 724.98
_cell_formula_units_Z 2
_symmetry_space_group_name_H-M 'C 1 2/m 1'
_symmetry_Int_Tables_number 12
_refine_ls_R_factor_all 0.083
loop_
_symmetry_equiv_pos_site_id
_symmetry_equiv_pos_as_xyz
1 '-x, y, -z'
2 '-x, -y, -z'
3 'x, -y, z'
4 'x, y, z'
5 '-x+1/2, y+1/2, -z'
6 '-x+1/2, -y+1/2, -z'
7 'x+1/2, -y+1/2, z'
8 'x+1/2, y+1/2, z'
loop_
_atom_type_symbol
_atom_type_oxidation_number
Cs1+ 1
Cr3+ 3
Cl1- -1
O2- -2
H1+ 1
loop_
_atom_site_label
_atom_site_type_symbol
_atom_site_symmetry_multiplicity
_atom_site_Wyckoff_symbol
_atom_site_fract_x
_atom_site_fract_y
_atom_site_fract_z
_atom_site_B_iso_or_equiv
_atom_site_occupancy
_atom_site_attached_hydrogens
Cs1 Cs1+ 4 i 0.2978 0 0.2514(1) . 1. 0
Cr1 Cr3+ 2 a 0 0 0 . 1. 0
Cl1 Cl1- 4 i 0.3066(1) 0 0.7563(4) . 1. 0
Cl2 Cl1- 4 i 0.3931(1) 0.5 0.1294(4) . 1. 0
Cl3 Cl1- 2 d 0 0.5 0.5 . 1. 0
O1 O2- 8 j 0.0484(5) 0.2222(19) 0.1888(14) . 1. 0
loop_
_atom_site_aniso_label
_atom_site_aniso_type_symbol
_atom_site_aniso_beta_11
_atom_site_aniso_beta_22
_atom_site_aniso_beta_33
_atom_site_aniso_beta_12
_atom_site_aniso_beta_13
_atom_site_aniso_beta_23
Cs1 Cs1+ 0.002 0.0185(2) 0.0096(1) 0 0.0011(1) 0
Cr1 Cr3+ 0.0011 0.0071(4) 0.0081(4) 0 0.0014(1) 0
Cl1 Cl1- 0.0016(1) 0.0170(6) 0.0123(5) 0 0.0018(2) 0
Cl2 Cl1- 0.0015 0.0152(6) 0.0140(4) 0 0.0028(2) 0
Cl3 Cl1- 0.0021(1) 0.0181(9) 0.0101(6) 0 0.0025(2) 0
O1 O2- 0.0096(2) 0.1397(32) 0.0917(18) -.0328(7) 0.0273(4) -.1057(18)
#End of TTdata_26527-ICSD