
#(C) 2017 by FIZ Karlsruhe - Leibniz Institute for Information Infrastructure.  All rights reserved.
data_26792-ICSD
_database_code_ICSD 26792
_audit_creation_date 1980-01-01
_audit_update_record 2007-04-01
_chemical_name_systematic 'Phyllo-disilicic acid - I'
_chemical_formula_structural 'H2 Si2 O5'
_chemical_formula_sum 'H2 O5 Si2'
_exptl_crystal_density_diffrn 1.96
_publ_section_title
'Ueber Kristallstrukturen zweier Phyllokieselsaeuren, H2 Si2 O5'
loop_
_citation_id
_citation_journal_full
_citation_year
_citation_journal_volume
_citation_page_first
_citation_page_last
_citation_journal_id_ASTM
primary

;
Zeitschrift fuer Kristallographie, Kristallgeometrie, Kristallphysik,
Kristallchemie (-144,1977)
; 1964 120 427 449 ZEKGAX
loop_
_publ_author_name
'Liebau, F.'
_cell_length_a 6.12
_cell_length_b 15.4
_cell_length_c 4.96
_cell_angle_alpha 90.
_cell_angle_beta 90.
_cell_angle_gamma 90.
_cell_volume 467.47
_cell_formula_units_Z 4
_symmetry_space_group_name_H-M 'I b m 2'
_symmetry_Int_Tables_number 46
_refine_ls_R_factor_all 0.161
loop_
_symmetry_equiv_pos_site_id
_symmetry_equiv_pos_as_xyz
1 '-x, y+1/2, z'
2 'x, -y+1/2, z'
3 '-x, -y, z'
4 'x, y, z'
5 '-x+1/2, y, z+1/2'
6 'x+1/2, -y, z+1/2'
7 '-x+1/2, -y+1/2, z+1/2'
8 'x+1/2, y+1/2, z+1/2'
loop_
_atom_type_symbol
_atom_type_oxidation_number
Si4+ 4
O2- -2
H1+ 1
loop_
_atom_site_label
_atom_site_type_symbol
_atom_site_symmetry_multiplicity
_atom_site_Wyckoff_symbol
_atom_site_fract_x
_atom_site_fract_y
_atom_site_fract_z
_atom_site_B_iso_or_equiv
_atom_site_occupancy
_atom_site_attached_hydrogens
Si1 Si4+ 8 c 0.8896 0.0935 0 1. 1. 0
O1 O2- 4 a 0 0 0.8895 1. 1. 0
O2 O2- 8 c 0.8035 0.1141 0.7146 1. 1. 0
O3 O2- 8 c 0.0808 0.164 0.9651 1. 1. 0
#End of TTdata_26792-ICSD