
data_26864-ICSD
_database_code_ICSD 26864
_audit_creation_date 1980-01-01
_audit_update_record 2016-02-01
_chemical_name_systematic 'Dilanthanum trioxide - alpha'
_chemical_formula_structural 'La2 O3'
_chemical_formula_sum 'La2 O3'
_chemical_name_structure_type La2O3
_exptl_crystal_density_diffrn 6.61
_cell_length_a 3.93
_cell_length_b 3.93
_cell_length_c 6.12
_cell_angle_alpha 90.
_cell_angle_beta 90.
_cell_angle_gamma 120.
_cell_volume 81.86
_cell_formula_units_Z 1
_symmetry_space_group_name_H-M 'P 3 2 1'
_symmetry_Int_Tables_number 150
loop_
_symmetry_equiv_pos_site_id
_symmetry_equiv_pos_as_xyz
1 'x-y, -y, -z'
2 '-x, -x+y, -z'
3 'y, x, -z'
4 '-x+y, -x, z'
5 '-y, x-y, z'
6 'x, y, z'
loop_
_atom_type_symbol
_atom_type_oxidation_number
La3+ 3
O2- -2
loop_
_atom_site_label
_atom_site_type_symbol
_atom_site_symmetry_multiplicity
_atom_site_Wyckoff_symbol
_atom_site_fract_x
_atom_site_fract_y
_atom_site_fract_z
_atom_site_B_iso_or_equiv
_atom_site_occupancy
_atom_site_attached_hydrogens
La1 La3+ 2 d 0.3333 0.6667 0.25(1) . 1. 0
O1 O2- 3 e 0.25(5) 0.25(5) 0 . 1. 0
