
data_27187-ICSD
_database_code_ICSD 27187
_audit_creation_date 1982-12-31
_audit_update_record 2016-02-01
_chemical_name_systematic 'Lanthanum iridium silicide (1/1/1)'
_chemical_formula_structural 'La Ir Si'
_chemical_formula_sum 'Ir1 La1 Si1'
_chemical_name_structure_type LaIrSi
_exptl_crystal_density_diffrn 9.29
_cell_length_a 6.363(3)
_cell_length_b 6.363(3)
_cell_length_c 6.363(3)
_cell_angle_alpha 90.
_cell_angle_beta 90.
_cell_angle_gamma 90.
_cell_volume 257.62
_cell_formula_units_Z 4
_symmetry_space_group_name_H-M 'P 21 3'
_symmetry_Int_Tables_number 198
_refine_ls_R_factor_all 0.056
loop_
_symmetry_equiv_pos_site_id
_symmetry_equiv_pos_as_xyz
1 '-z+1/2, -x, y+1/2'
2 '-y+1/2, -z, x+1/2'
3 '-x+1/2, -y, z+1/2'
4 '-z, x+1/2, -y+1/2'
5 '-y, z+1/2, -x+1/2'
6 '-x, y+1/2, -z+1/2'
7 'z+1/2, -x+1/2, -y'
8 'y+1/2, -z+1/2, -x'
9 'x+1/2, -y+1/2, -z'
10 'z, x, y'
11 'y, z, x'
12 'x, y, z'
loop_
_atom_type_symbol
_atom_type_oxidation_number
La2+ 2
Ir2+ 2
Si4- -4
loop_
_atom_site_label
_atom_site_type_symbol
_atom_site_symmetry_multiplicity
_atom_site_Wyckoff_symbol
_atom_site_fract_x
_atom_site_fract_y
_atom_site_fract_z
_atom_site_B_iso_or_equiv
_atom_site_occupancy
_atom_site_attached_hydrogens
La1 La2+ 4 a 0.1325(3) 0.1325(3) 0.1325(3) . 1. 0
Ir1 Ir2+ 4 a 0.4230(2) 0.4230(2) 0.4230(2) . 1. 0
Si1 Si4- 4 a 0.839(2) 0.839(2) 0.839(2) . 1. 0
loop_
_atom_site_aniso_label
_atom_site_aniso_type_symbol
_atom_site_aniso_U_11
_atom_site_aniso_U_22
_atom_site_aniso_U_33
_atom_site_aniso_U_12
_atom_site_aniso_U_13
_atom_site_aniso_U_23
La1 La2+ 0.0143(10) 0.0143(10) 0.0143(10) 0.0006(9) 0.0006(9) 0.0006(9)
Ir1 Ir2+ 0.0173(9) 0.0173(9) 0.0173(9) -.0017(7) -.0017(7) -.0017(7)
Si1 Si4- 0.020(5) 0.020(5) 0.020(5) -.006(5) -.006(5) -.006(5)
