
#(C) 2017 by FIZ Karlsruhe - Leibniz Institute for Information Infrastructure.  All rights reserved.
data_27494-ICSD
_database_code_ICSD 27494
_audit_creation_date 1980-01-01
_chemical_name_systematic 'Copper trihydroxide iodide'
_chemical_formula_structural 'Cu2 (O H)3 I'
_chemical_formula_sum 'H3 Cu2 I1 O3'
_chemical_name_structure_type Botallackite
_exptl_crystal_density_diffrn 4.45
_publ_section_title 'Die Kristallstrukturen von Cu2 (O H)3 Br und Cu2 (O H)3 J'
loop_
_citation_id
_citation_journal_full
_citation_year
_citation_journal_volume
_citation_page_first
_citation_page_last
_citation_journal_id_ASTM
primary 'Helvetica Chimica Acta' 1961 44 2103 2109 HCACAV
loop_
_publ_author_name
'Oswald, H.R.'
'Iitaka, Y.'
'Locchi, S.'
'Ludi, A.'
_cell_length_a 5.653(5)
_cell_length_b 6.157(5)
_cell_length_c 6.560(5)
_cell_angle_alpha 90.
_cell_angle_beta 95.17(7)
_cell_angle_gamma 90.
_cell_volume 227.4
_cell_formula_units_Z 2
_symmetry_space_group_name_H-M 'P 1 21/m 1'
_symmetry_Int_Tables_number 11
_refine_ls_R_factor_all 0.119
loop_
_symmetry_equiv_pos_site_id
_symmetry_equiv_pos_as_xyz
1 'x, -y+1/2, z'
2 '-x, -y, -z'
3 '-x, y+1/2, -z'
4 'x, y, z'
loop_
_atom_type_symbol
_atom_type_oxidation_number
Cu2+ 2
I1- -1
O2- -2
H1+ 1
loop_
_atom_site_label
_atom_site_type_symbol
_atom_site_symmetry_multiplicity
_atom_site_Wyckoff_symbol
_atom_site_fract_x
_atom_site_fract_y
_atom_site_fract_z
_atom_site_B_iso_or_equiv
_atom_site_occupancy
_atom_site_attached_hydrogens
Cu1 Cu2+ 2 a 0 0 0 0.84 1. 0
Cu2 Cu2+ 2 e 0.509(14) 0.25 0.003(17) 0.93 1. 0
I1 I1- 2 e 0.2077(62) 0.25 0.3806(76) 1.03 1. 0
O1 O2- 2 e 0.881(71) 0.25 0.838(74) 1.43 1. 0
O2 O2- 4 f 0.311(50) -0.005(48) 0.861(49) 1.18 1. 0
#End of TTdata_27494-ICSD