
#(C) 2017 by FIZ Karlsruhe - Leibniz Institute for Information Infrastructure.  All rights reserved.
data_27527-ICSD
_database_code_ICSD 27527
_audit_creation_date 1980-01-01
_audit_update_record 2015-08-01
_chemical_name_systematic 'Dicalcium boron tetrahydroxide arsenate'
_chemical_formula_structural 'Ca2 B As O4 (O H)4'
_chemical_formula_sum 'H4 As1 B1 Ca2 O8'
_chemical_name_mineral Cahnite
_exptl_crystal_density_diffrn 3.16
_publ_section_title 'The crystal structure of Cahnite, Ca2 B As O4 (O H)4'
loop_
_citation_id
_citation_journal_full
_citation_year
_citation_journal_volume
_citation_page_first
_citation_page_last
_citation_journal_id_ASTM
primary 'American Mineralogist' 1961 46 1077 1085 AMMIAY
loop_
_publ_author_name
'Prewitt, C.T.'
'Buerger, M.J.'
_cell_length_a 7.11
_cell_length_b 7.11
_cell_length_c 6.2
_cell_angle_alpha 90.
_cell_angle_beta 90.
_cell_angle_gamma 90.
_cell_volume 313.42
_cell_formula_units_Z 2
_symmetry_space_group_name_H-M 'I -4'
_symmetry_Int_Tables_number 82
_refine_ls_R_factor_all 0.059
loop_
_symmetry_equiv_pos_site_id
_symmetry_equiv_pos_as_xyz
1 '-y, x, -z'
2 'y, -x, -z'
3 '-x, -y, z'
4 'x, y, z'
5 '-y+1/2, x+1/2, -z+1/2'
6 'y+1/2, -x+1/2, -z+1/2'
7 '-x+1/2, -y+1/2, z+1/2'
8 'x+1/2, y+1/2, z+1/2'
loop_
_atom_type_symbol
_atom_type_oxidation_number
As5+ 5
B3+ 3
Ca2+ 2
O2- -2
H1+ 1
loop_
_atom_site_label
_atom_site_type_symbol
_atom_site_symmetry_multiplicity
_atom_site_Wyckoff_symbol
_atom_site_fract_x
_atom_site_fract_y
_atom_site_fract_z
_atom_site_B_iso_or_equiv
_atom_site_occupancy
_atom_site_attached_hydrogens
As1 As5+ 2 a 0 0 0 0.4 1. 0
B1 B3+ 2 c 0 0.5 0.25 0.4 1. 0
Ca1 Ca2+ 2 b 0 0 0.5 0.4 1. 0
Ca2 Ca2+ 2 d 0 0.5 0.75 0.4 1. 0
O1 O2- 8 g 0.178 0.055 0.167 . 1. 0
O2 O2- 8 g 0.16 0.444 0.113 . 1. 0
#End of TTdata_27527-ICSD