
data_280028-ICSD
_database_code_ICSD 280028
_audit_creation_date 2000-07-15
_chemical_name_systematic 'Zinc mercury thiocyanate'
_chemical_formula_structural 'Zn Hg (S C N)4'
_chemical_formula_sum 'C4 Hg1 N4 S4 Zn1'
_chemical_name_structure_type CoHg(SCN)4
_exptl_crystal_density_diffrn 3.03
_cell_length_a 11.0912(4)
_cell_length_b 11.0912(4)
_cell_length_c 4.4414(4)
_cell_angle_alpha 90.
_cell_angle_beta 90.
_cell_angle_gamma 90.
_cell_volume 546.36
_cell_formula_units_Z 2
_symmetry_space_group_name_H-M 'I -4'
_symmetry_Int_Tables_number 82
_refine_ls_R_factor_all 0.034
loop_
_symmetry_equiv_pos_site_id
_symmetry_equiv_pos_as_xyz
1 '-y, x, -z'
2 'y, -x, -z'
3 '-x, -y, z'
4 'x, y, z'
5 '-y+1/2, x+1/2, -z+1/2'
6 'y+1/2, -x+1/2, -z+1/2'
7 '-x+1/2, -y+1/2, z+1/2'
8 'x+1/2, y+1/2, z+1/2'
loop_
_atom_type_symbol
_atom_type_oxidation_number
Hg2+ 2
Zn2+ 2
C4+ 4
N3- -3
S2- -2
loop_
_atom_site_label
_atom_site_type_symbol
_atom_site_symmetry_multiplicity
_atom_site_Wyckoff_symbol
_atom_site_fract_x
_atom_site_fract_y
_atom_site_fract_z
_atom_site_B_iso_or_equiv
_atom_site_occupancy
_atom_site_attached_hydrogens
Hg1 Hg2+ 2 a 0 0 0 . 1. 0
Zn1 Zn2+ 2 d -.5 0 0.25 . 1. 0
C1 C4+ 8 g -.2730(6) -.0789(6) -.1170(16) . 1. 0
N1 N3- 8 g -.3609(5) -.0490(6) 0.012(4) . 1. 0
S1 S2- 8 g -.15323(17) -.12430(19) -.3005(5) . 1. 0
loop_
_atom_site_aniso_label
_atom_site_aniso_type_symbol
_atom_site_aniso_U_11
_atom_site_aniso_U_22
_atom_site_aniso_U_33
_atom_site_aniso_U_12
_atom_site_aniso_U_13
_atom_site_aniso_U_23
Hg1 Hg2+ 0.0255(2) 0.0255(2) 0.0476(3) 0 0 0
Zn1 Zn2+ 0.0253(4) 0.0253(4) 0.0459(9) 0 0 0
C1 C4+ 0.021(2) 0.027(3) 0.031(3) -.002(2) -.005(2) 0.006(2)
N1 N3- 0.029(2) 0.037(3) 0.050(3) 0.0001(19) -.010(4) -.005(5)
S1 S2- 0.0267(7) 0.0375(9) 0.0442(10) -.0018(6) 0.0011(7) -.0086(7)
