
#(C) 2017 by FIZ Karlsruhe - Leibniz Institute for Information Infrastructure.  All rights reserved.
data_28019-ICSD
_database_code_ICSD 28019
_audit_creation_date 1980-01-01
_audit_update_record 2009-02-01
_chemical_name_systematic 'Potassium scandium bis(molybdate)'
_chemical_formula_structural 'K Sc (Mo O4)2'
_chemical_formula_sum 'K1 Mo2 O8 Sc1'
_chemical_name_structure_type KAl(MoO4)2
_exptl_crystal_density_diffrn 3.22
_publ_section_title

;
Synthesis and crystal structure of double molybdates K R (Mo O4)2 for R(III)=
Al, Sc, and Fe and tungstate K Sc (W O4)2
;
loop_
_citation_id
_citation_journal_full
_citation_year
_citation_journal_volume
_citation_page_first
_citation_page_last
_citation_journal_id_ASTM
primary Kristallografiya 1970 15 953 959 KRISAJ
loop_
_publ_author_name
'Klevtsova, R.F.'
'Klevtsov, P.V.'
_cell_length_a 5.774(6)
_cell_length_b 5.774(6)
_cell_length_c 7.219(7)
_cell_angle_alpha 90.
_cell_angle_beta 90.
_cell_angle_gamma 120.
_cell_volume 208.43
_cell_formula_units_Z 1
_symmetry_space_group_name_H-M 'P -3 m 1'
_symmetry_Int_Tables_number 164
_refine_ls_R_factor_all 0.134
loop_
_symmetry_equiv_pos_site_id
_symmetry_equiv_pos_as_xyz
1 'x-y, -y, -z'
2 '-x, -x+y, -z'
3 'y, x, -z'
4 'x-y, x, -z'
5 'y, -x+y, -z'
6 '-x, -y, -z'
7 '-x+y, y, z'
8 'x, x-y, z'
9 '-y, -x, z'
10 '-x+y, -x, z'
11 '-y, x-y, z'
12 'x, y, z'
loop_
_atom_type_symbol
_atom_type_oxidation_number
K1+ 1
Sc3+ 3
Mo6+ 6
O2- -2
loop_
_atom_site_label
_atom_site_type_symbol
_atom_site_symmetry_multiplicity
_atom_site_Wyckoff_symbol
_atom_site_fract_x
_atom_site_fract_y
_atom_site_fract_z
_atom_site_B_iso_or_equiv
_atom_site_occupancy
_atom_site_attached_hydrogens
K1 K1+ 1 b 0 0 0.5 1.55 1. 0
Sc1 Sc3+ 1 a 0 0 0 0.54 1. 0
Mo1 Mo6+ 2 d 0.3333 0.6667 0.25225(45) 0.16 1. 0
O1 O2- 2 d 0.3333 0.6667 0.4941(60) 2.6 1. 0
O2 O2- 6 i 0.157 0.314 0.1738(35) 1.77 1. 0
#End of TTdata_28019-ICSD