
#(C) 2017 by FIZ Karlsruhe - Leibniz Institute for Information Infrastructure.  All rights reserved.
data_280273-ICSD
_database_code_ICSD 280273
_audit_creation_date 2002-04-01
_chemical_name_systematic 'Niobium palladium phosphide (5/4/4)'
_chemical_formula_structural 'Nb5 Pd4 P4'
_chemical_formula_sum 'Nb5 P4 Pd4'
_chemical_name_structure_type Nb5Cu4Si4
_exptl_crystal_density_diffrn 8.72
_cell_measurement_temperature 295.
_publ_section_title 'Zr3 Pd4 P3, Hf3 Pd4 P3, Hf Pd Sb, and Nb5 Pd4 P4'
loop_
_citation_id
_citation_journal_full
_citation_year
_citation_journal_volume
_citation_page_first
_citation_page_last
_citation_journal_id_ASTM
primary 'Inorganic Chemistry' 2000 39 4936 4941 INOCAJ
loop_
_publ_author_name
'Wang, M.'
'McDonald, R.'
'Mar, A.'
_cell_length_a 10.3059(12)
_cell_length_b 10.3059(12)
_cell_length_c 3.6372(5)
_cell_angle_alpha 90.
_cell_angle_beta 90.
_cell_angle_gamma 90.
_cell_volume 386.31
_cell_formula_units_Z 2
_symmetry_space_group_name_H-M 'I 4/m'
_symmetry_Int_Tables_number 87
_refine_ls_R_factor_all 0.0703
loop_
_symmetry_equiv_pos_site_id
_symmetry_equiv_pos_as_xyz
1 '-y, x, -z'
2 'y, -x, -z'
3 'x, y, -z'
4 '-x, -y, -z'
5 'y, -x, z'
6 '-y, x, z'
7 '-x, -y, z'
8 'x, y, z'
9 '-y+1/2, x+1/2, -z+1/2'
10 'y+1/2, -x+1/2, -z+1/2'
11 'x+1/2, y+1/2, -z+1/2'
12 '-x+1/2, -y+1/2, -z+1/2'
13 'y+1/2, -x+1/2, z+1/2'
14 '-y+1/2, x+1/2, z+1/2'
15 '-x+1/2, -y+1/2, z+1/2'
16 'x+1/2, y+1/2, z+1/2'
loop_
_atom_type_symbol
_atom_type_oxidation_number
Nb0+ 0
Pd0+ 0
P0+ 0
loop_
_atom_site_label
_atom_site_type_symbol
_atom_site_symmetry_multiplicity
_atom_site_Wyckoff_symbol
_atom_site_fract_x
_atom_site_fract_y
_atom_site_fract_z
_atom_site_B_iso_or_equiv
_atom_site_occupancy
_atom_site_attached_hydrogens
Nb1 Nb0+ 2 a 0 0 0 . 1. 0
Nb2 Nb0+ 8 h 0.31039(10) 0.37722(10) 0 . 1. 0
Pd1 Pd0+ 8 h 0.40535(8) 0.11385(9) 0 . 1. 0
P1 P0+ 8 h 0.0608(3) 0.2434(3) 0 . 1. 0
loop_
_atom_site_aniso_label
_atom_site_aniso_type_symbol
_atom_site_aniso_U_11
_atom_site_aniso_U_22
_atom_site_aniso_U_33
_atom_site_aniso_U_12
_atom_site_aniso_U_13
_atom_site_aniso_U_23
Nb1 Nb0+ 0.0038(6) 0.0038(6) 0.0094(12) 0 0 0
Nb2 Nb0+ 0.0046(5) 0.0056(5) 0.0094(6) 0.0009(3) 0 0
Pd1 Pd0+ 0.0062(5) 0.0057(5) 0.0099(5) 0.0001(3) 0 0
P1 P0+ 0.0059(15) 0.0048(15) 0.0106(17) 0.0017(11) 0 0
#End of TTdata_280273-ICSD