
data_280986-ICSD
_database_code_ICSD 280986
_audit_creation_date 2003-04-01
_chemical_name_systematic 'Niobium sulfide (1/2)'
_chemical_formula_structural 'Nb S2'
_chemical_formula_sum 'Nb1 S2'
_chemical_name_structure_type NbS2-misfit
_exptl_crystal_density_diffrn 2.37
_cell_measurement_temperature 115.
_cell_length_a 3.3065(4)
_cell_length_b 5.7960(5)
_cell_length_c 22.956(3)
_cell_angle_alpha 90.
_cell_angle_beta 90.
_cell_angle_gamma 90.
_cell_volume 439.94
_cell_formula_units_Z 4
_symmetry_space_group_name_H-M 'F m 2 m'
_symmetry_Int_Tables_number 42
_refine_ls_R_factor_all 0.091
loop_
_symmetry_equiv_pos_site_id
_symmetry_equiv_pos_as_xyz
1 'x, y, -z'
2 '-x, y, z'
3 '-x, y, -z'
4 'x, y, z'
5 'x, y+1/2, -z+1/2'
6 '-x, y+1/2, z+1/2'
7 '-x, y+1/2, -z+1/2'
8 'x, y+1/2, z+1/2'
9 'x+1/2, y, -z+1/2'
10 '-x+1/2, y, z+1/2'
11 '-x+1/2, y, -z+1/2'
12 'x+1/2, y, z+1/2'
13 'x+1/2, y+1/2, -z'
14 '-x+1/2, y+1/2, z'
15 '-x+1/2, y+1/2, -z'
16 'x+1/2, y+1/2, z'
loop_
_atom_type_symbol
_atom_type_oxidation_number
Nb4+ 4
S2- -2
loop_
_atom_site_label
_atom_site_type_symbol
_atom_site_symmetry_multiplicity
_atom_site_Wyckoff_symbol
_atom_site_fract_x
_atom_site_fract_y
_atom_site_fract_z
_atom_site_B_iso_or_equiv
_atom_site_occupancy
_atom_site_attached_hydrogens
Nb1 Nb4+ 4 a 0 -.07665(9) 0 0.00251(4) 1. 0
S1 S2- 8 d 0 0.2553(1) 0.06815(2) 0.00360(8) 1. 0
loop_
_atom_site_aniso_label
_atom_site_aniso_type_symbol
_atom_site_aniso_U_11
_atom_site_aniso_U_22
_atom_site_aniso_U_33
_atom_site_aniso_U_12
_atom_site_aniso_U_13
_atom_site_aniso_U_23
Nb1 Nb4+ 0.00353(6) 0.00200(6) 0.00201(7) 0 0 0
S1 S2- 0.0045(1) 0.0031(1) 0.0032(1) 0 0 0.0000(1)
