
#(C) 2017 by FIZ Karlsruhe - Leibniz Institute for Information Infrastructure.  All rights reserved.
data_281259-ICSD
_database_code_ICSD 281259
_audit_creation_date 2003-10-01
_chemical_name_systematic 'Tristrontium trinitridogallatee'
_chemical_formula_structural 'Sr3 (Ga N3)'
_chemical_formula_sum 'Ga1 N3 Sr3'
_chemical_name_structure_type Ba3FeN3
_exptl_crystal_density_diffrn 4.62
_cell_measurement_temperature 235.
_publ_section_title

;
Synthesis and structure of Sr3 Ga N3 and Sr6 Ga N5: strontium gallium nitrides
with isolated planar (Ga N3)(6-) anions
;
loop_
_citation_id
_citation_journal_full
_citation_year
_citation_journal_volume
_citation_page_first
_citation_page_last
_citation_journal_id_ASTM
primary 'Inorganic Chemistry' 2003 42 1779 1785 INOCAJ
loop_
_publ_author_name
'Park, D.G.'
'Gal, Z.A.'
'DiSalvo, F.J.'
_cell_length_a 7.584(2)
_cell_length_b 7.584(2)
_cell_length_c 5.410(3)
_cell_angle_alpha 90.
_cell_angle_beta 90.
_cell_angle_gamma 120.
_cell_volume 269.48
_cell_formula_units_Z 2
_symmetry_space_group_name_H-M 'P 63/m'
_symmetry_Int_Tables_number 176
_refine_ls_R_factor_all 0.0326
loop_
_symmetry_equiv_pos_site_id
_symmetry_equiv_pos_as_xyz
1 '-x+y, -x, -z+1/2'
2 '-y, x-y, -z+1/2'
3 'x, y, -z+1/2'
4 'x-y, x, -z'
5 'y, -x+y, -z'
6 '-x, -y, -z'
7 'x-y, x, z+1/2'
8 'y, -x+y, z+1/2'
9 '-x, -y, z+1/2'
10 '-x+y, -x, z'
11 '-y, x-y, z'
12 'x, y, z'
loop_
_atom_type_symbol
_atom_type_oxidation_number
Sr2+ 2
Ga3+ 3
N3- -3
loop_
_atom_site_label
_atom_site_type_symbol
_atom_site_symmetry_multiplicity
_atom_site_Wyckoff_symbol
_atom_site_fract_x
_atom_site_fract_y
_atom_site_fract_z
_atom_site_B_iso_or_equiv
_atom_site_occupancy
_atom_site_attached_hydrogens
Sr1 Sr2+ 6 h 0.35678(11) 0.28378(12) 0.25 0.0073(3) 1. 0
Ga1 Ga3+ 2 c 0.3333 0.6667 0.25 0.0058(4) 1. 0
N1 N3- 6 h 0.0922(11) 0.3988(11) 0.25 0.0085(13) 1. 0
loop_
_atom_site_aniso_label
_atom_site_aniso_type_symbol
_atom_site_aniso_U_11
_atom_site_aniso_U_22
_atom_site_aniso_U_33
_atom_site_aniso_U_12
_atom_site_aniso_U_13
_atom_site_aniso_U_23
Sr1 Sr2+ 0.0083(5) 0.0080(4) 0.0067(4) 0.0048(3) 0 0
Ga1 Ga3+ 0.0058(5) 0.0058(5) 0.0059(7) 0.0029(3) 0 0
N1 N3- 0.007(3) 0.006(3) 0.012(3) 0.003(3) 0 0
#End of TTdata_281259-ICSD