
#(C) 2017 by FIZ Karlsruhe - Leibniz Institute for Information Infrastructure.  All rights reserved.
data_281417-ICSD
_database_code_ICSD 281417
_audit_creation_date 2004-04-01
_chemical_name_systematic 'Lanthanum gallium chloride (3/4/1)'
_chemical_formula_structural 'La3 Ga4 Cl'
_chemical_formula_sum 'Cl1 Ga4 La3'
_chemical_name_structure_type In5Bi3
_exptl_crystal_density_diffrn 6.36
_publ_section_title

;
Ce10 Cl4 Ga5 and Ln3 Cl Ga4 (Ln = La, Ce): reduced halides or oxidized
intermetallics?
;
loop_
_citation_id
_citation_journal_full
_citation_year
_citation_journal_volume
_citation_page_first
_citation_page_last
_citation_journal_id_ASTM
primary 'Inorganic Chemistry' 2003 42 3130 3135 INOCAJ
loop_
_publ_author_name
'Zheng, C.'
'Mattausch, H.J.'
'Oeckler, O.'
'Simon, A.'
_cell_length_a 8.1955(8)
_cell_length_b 8.1955(8)
_cell_length_c 11.363(2)
_cell_angle_alpha 90.
_cell_angle_beta 90.
_cell_angle_gamma 90.
_cell_volume 763.21
_cell_formula_units_Z 4
_symmetry_space_group_name_H-M 'I 4/m c m'
_symmetry_Int_Tables_number 140
_refine_ls_R_factor_all 0.0325
loop_
_symmetry_equiv_pos_site_id
_symmetry_equiv_pos_as_xyz
1 'y, x, -z+1/2'
2 '-y, -x, -z+1/2'
3 '-y, x, -z'
4 'y, -x, -z'
5 'x, -y, -z+1/2'
6 '-x, y, -z+1/2'
7 'x, y, -z'
8 '-x, -y, -z'
9 '-y, -x, z+1/2'
10 'y, x, z+1/2'
11 'y, -x, z'
12 '-y, x, z'
13 '-x, y, z+1/2'
14 'x, -y, z+1/2'
15 '-x, -y, z'
16 'x, y, z'
17 'y+1/2, x+1/2, -z'
18 '-y+1/2, -x+1/2, -z'
19 '-y+1/2, x+1/2, -z+1/2'
20 'y+1/2, -x+1/2, -z+1/2'
21 'x+1/2, -y+1/2, -z'
22 '-x+1/2, y+1/2, -z'
23 'x+1/2, y+1/2, -z+1/2'
24 '-x+1/2, -y+1/2, -z+1/2'
25 '-y+1/2, -x+1/2, z'
26 'y+1/2, x+1/2, z'
27 'y+1/2, -x+1/2, z+1/2'
28 '-y+1/2, x+1/2, z+1/2'
29 '-x+1/2, y+1/2, z'
30 'x+1/2, -y+1/2, z'
31 '-x+1/2, -y+1/2, z+1/2'
32 'x+1/2, y+1/2, z+1/2'
loop_
_atom_type_symbol
_atom_type_oxidation_number
La0+ 0
Ga0+ 0
Cl0+ 0
loop_
_atom_site_label
_atom_site_type_symbol
_atom_site_symmetry_multiplicity
_atom_site_Wyckoff_symbol
_atom_site_fract_x
_atom_site_fract_y
_atom_site_fract_z
_atom_site_B_iso_or_equiv
_atom_site_occupancy
_atom_site_attached_hydrogens
La1 La0+ 4 a 0 0 0.25 0.0122(6) 1. 0
La2 La0+ 8 h 0.33897(11) 0.16103(11) 0.5 0.0119(5) 1. 0
Ga1 Ga0+ 16 l 0.35683(14) 0.14317(14) 0.19924(15) 0.0129(5) 1. 0
Cl1 Cl0+ 4 c 0 0 0 0.0172(15) 1. 0
loop_
_atom_site_aniso_label
_atom_site_aniso_type_symbol
_atom_site_aniso_U_11
_atom_site_aniso_U_22
_atom_site_aniso_U_33
_atom_site_aniso_U_12
_atom_site_aniso_U_13
_atom_site_aniso_U_23
La1 La0+ 0.0105(7) 0.0105(7) 0.0156(9) 0 0 0
La2 La0+ 0.0123(6) 0.0123(6) 0.0113(7) -0.0005(4) 0 0
Ga1 Ga0+ 0.0123(7) 0.0123(7) 0.0141(9) -0.0014(6) -0.0015(5) 0.0015(5)
Cl1 Cl0+ 0.015(2) 0.015(2) 0.022(4) 0 0 0
#End of TTdata_281417-ICSD