
#(C) 2017 by FIZ Karlsruhe - Leibniz Institute for Information Infrastructure.  All rights reserved.
data_281600-ICSD
_database_code_ICSD 281600
_audit_creation_date 2004-10-01
_chemical_name_systematic 'Germanium oxide - HP'
_chemical_formula_structural 'Ge O2'
_chemical_formula_sum 'Ge1 O2'
_chemical_name_structure_type PbO2-alpha
_exptl_crystal_density_diffrn 7.54
_cell_measurement_temperature 2110.
_cell_measurement_pressure 70700000.
_publ_section_title
'Structural refinements of high-pressure phases in germanium dioxide'
loop_
_citation_id
_citation_journal_full
_citation_year
_citation_journal_volume
_citation_page_first
_citation_page_last
_citation_journal_id_ASTM
primary 'Acta Crystallographica, Section B: Structural Science' 2003 59 701 708
ASBSDK
loop_
_publ_author_name
'Shiraki, K.'
'Tsuchiya, T.'
'Ono, S.'
_cell_length_a 4.0519(6)
_cell_length_b 5.0269(6)
_cell_length_c 4.5223(6)
_cell_angle_alpha 90.
_cell_angle_beta 90.
_cell_angle_gamma 90.
_cell_volume 92.11
_cell_formula_units_Z 4
_symmetry_space_group_name_H-M 'P b c n'
_symmetry_Int_Tables_number 60
_refine_ls_R_factor_all 0.0047
loop_
_symmetry_equiv_pos_site_id
_symmetry_equiv_pos_as_xyz
1 'x, -y, z+1/2'
2 '-x+1/2, y+1/2, z'
3 'x+1/2, y+1/2, -z+1/2'
4 '-x, -y, -z'
5 '-x, y, -z+1/2'
6 'x+1/2, -y+1/2, -z'
7 '-x+1/2, -y+1/2, z+1/2'
8 'x, y, z'
loop_
_atom_type_symbol
_atom_type_oxidation_number
Ge4+ 4
O2- -2
loop_
_atom_site_label
_atom_site_type_symbol
_atom_site_symmetry_multiplicity
_atom_site_Wyckoff_symbol
_atom_site_fract_x
_atom_site_fract_y
_atom_site_fract_z
_atom_site_B_iso_or_equiv
_atom_site_occupancy
_atom_site_attached_hydrogens
Ge1 Ge4+ 4 c 0 0.169(1) 0.25 2.9(7) 1. 0
O1 O2- 8 d 0.211(5) 0.895(3) 0.400(2) 2.9(7) 1. 0
#End of TTdata_281600-ICSD