
#(C) 2017 by FIZ Karlsruhe - Leibniz Institute for Information Infrastructure.  All rights reserved.
data_28209-ICSD
_database_code_ICSD 28209
_audit_creation_date 1980-01-01
_audit_update_record 2004-10-01
_chemical_name_systematic 'Yttrium iron chloride trihydroxide'
_chemical_formula_structural 'Y Fe Cl2 (O H)3'
_chemical_formula_sum 'H3 Cl2 Fe1 O3 Y1'
_exptl_crystal_density_diffrn 3.15
_publ_section_title 'New crystalline hydroxychloride Y Fe Cl2 (O H)3'
loop_
_citation_id
_citation_journal_full
_citation_year
_citation_journal_volume
_citation_page_first
_citation_page_last
_citation_journal_id_ASTM
primary 'Zhurnal Strukturnoi Khimii (Issue-No. from 1981)' 1968 9 834 837 ZSTKAI
loop_
_publ_author_name
'Klevtsova, R.F.'
'Klevtsov, P.V.'
_cell_length_a 18.16
_cell_length_b 3.57
_cell_length_c 11.4
_cell_angle_alpha 90.
_cell_angle_beta 130.5
_cell_angle_gamma 90.
_cell_volume 562.
_cell_formula_units_Z 4
_symmetry_space_group_name_H-M 'C 1 2/m 1'
_symmetry_Int_Tables_number 12
_refine_ls_R_factor_all 0.114
loop_
_symmetry_equiv_pos_site_id
_symmetry_equiv_pos_as_xyz
1 '-x, y, -z'
2 '-x, -y, -z'
3 'x, -y, z'
4 'x, y, z'
5 '-x+1/2, y+1/2, -z'
6 '-x+1/2, -y+1/2, -z'
7 'x+1/2, -y+1/2, z'
8 'x+1/2, y+1/2, z'
loop_
_atom_type_symbol
_atom_type_oxidation_number
Y3+ 3
Fe2+ 2
Cl1- -1
O2- -2
H1+ 1
loop_
_atom_site_label
_atom_site_type_symbol
_atom_site_symmetry_multiplicity
_atom_site_Wyckoff_symbol
_atom_site_fract_x
_atom_site_fract_y
_atom_site_fract_z
_atom_site_B_iso_or_equiv
_atom_site_occupancy
_atom_site_attached_hydrogens
Y1 Y3+ 4 i 0.1239(2) 0.5 0.3755(3) 1.8 1. 0
Fe1 Fe2+ 2 a 0 0 0 1.96 1. 0
Fe2 Fe2+ 2 c 0 0 0.5 1.77 1. 0
Cl1 Cl1- 4 i -.0743(9) 0.5 0.052(1) 4.02 1. 0
Cl2 Cl1- 4 i 0.1311(6) 0.5 0.656(3) 3.03 1. 0
O1 O2- 4 i 0.024(1) 0 0.348(2) 2.21 1. 0
O2 O2- 4 i 0.221(1) 0 0.553(2) 1.68 1. 0
O3 O2- 4 i 0.119(1) 0 0.228(2) 2.6 1. 0
#End of TTdata_28209-ICSD