
#(C) 2017 by FIZ Karlsruhe - Leibniz Institute for Information Infrastructure.  All rights reserved.
data_2832-ICSD
_database_code_ICSD 2832
_audit_creation_date 1980-01-01
_chemical_name_systematic 'Calcium potassium arsenate octahydrate'
_chemical_formula_structural 'Ca K As O4 (H2 O)8'
_chemical_formula_sum 'H16 As1 Ca1 K1 O12'
_exptl_crystal_density_diffrn 2.03
_publ_section_title 'The crystal structure of Ca K As (H2 O)8'
loop_
_citation_id
_citation_journal_full
_citation_year
_citation_journal_volume
_citation_page_first
_citation_page_last
_citation_journal_id_ASTM
primary 'Acta Crystallographica B (24,1968-38,1982)' 1972 28 3056 3065 ACBCAR
loop_
_publ_author_name
'Dickens, B.'
'Brown, W.E.'
_cell_length_a 7.146(1)
_cell_length_b 11.696(2)
_cell_length_c 7.100(2)
_cell_angle_alpha 90.
_cell_angle_beta 90.
_cell_angle_gamma 90.
_cell_volume 593.42
_cell_formula_units_Z 2
_symmetry_space_group_name_H-M 'C m 2 m'
_symmetry_Int_Tables_number 38
_refine_ls_R_factor_all 0.043
loop_
_symmetry_equiv_pos_site_id
_symmetry_equiv_pos_as_xyz
1 '-x, y, z'
2 'x, y, -z'
3 '-x, y, -z'
4 'x, y, z'
5 '-x+1/2, y+1/2, z'
6 'x+1/2, y+1/2, -z'
7 '-x+1/2, y+1/2, -z'
8 'x+1/2, y+1/2, z'
loop_
_atom_type_symbol
_atom_type_oxidation_number
Ca2+ 2
K1+ 1
As5+ 5
O2- -2
H1+ 1
loop_
_atom_site_label
_atom_site_type_symbol
_atom_site_symmetry_multiplicity
_atom_site_Wyckoff_symbol
_atom_site_fract_x
_atom_site_fract_y
_atom_site_fract_z
_atom_site_B_iso_or_equiv
_atom_site_occupancy
_atom_site_attached_hydrogens
Ca1 Ca2+ 2 b 0 0.3750(1) 0.5 . 1. 0
K1 K1+ 2 b 0.5 0.1877 0.5 . 1. 0
As1 As5+ 2 a 0 0 0 . 1. 0
O1 O2- 4 c 0 0.0793(4) 0.1977(5) . 1. 0
O2 O2- 4 d 0.3027(5) 0.4241(4) 0 . 1. 0
O3 O2- 4 c 0.5 0.0031(6) 0.2235(5) . 1. 0
O4 O2- 4 e 0.2228(5) -.0003(7) 0.5 . 1. 0
O5 O2- 8 f 0.2119(4) 0.2697(3) 0.2824(4) . 1. 0
loop_
_atom_site_aniso_label
_atom_site_aniso_type_symbol
_atom_site_aniso_B_11
_atom_site_aniso_B_22
_atom_site_aniso_B_33
_atom_site_aniso_B_12
_atom_site_aniso_B_13
_atom_site_aniso_B_23
Ca1 Ca2+ 1.16(4) 1.20(5) 1.04(5) 0 0 0
K1 K1+ 1.40(5) 1.94(7) 2.33(7) 0 0 0
As1 As5+ 0.89(2) 0.77(2) 0.87(2) 0 0 0
O1 O2- 1.9(1) 1.4(1) 1.2(1) 0 0 -.4(1)
O2 O2- 1.2(1) 1.9(2) 1.7(1) 0.5(1) 0 0
O3 O2- 1.9(1) 2.4(1) 1.4(1) 0 0 -.1(2)
O4 O2- 1.6(1) 3.2(2) 1.8(1) 1.0(2) 0 0
O5 O2- 2.2(1) 1.3(1) 1.7(1) -.1(1) 0.09(7) -.07(8)
#End of TTdata_2832-ICSD