
#(C) 2017 by FIZ Karlsruhe - Leibniz Institute for Information Infrastructure.  All rights reserved.
data_28399-ICSD
_database_code_ICSD 28399
_audit_creation_date 1980-01-01
_audit_update_record 2013-08-01
_chemical_name_systematic 'Trimercury dioxide chloride'
_chemical_formula_structural 'Hg3 O2 Cl2'
_chemical_formula_sum 'Cl2 Hg3 O2'
_chemical_name_structure_type Hg3O2Cl2
_exptl_crystal_density_diffrn 8.69
_publ_section_title
'Least-squares refinement of the structure of some mercury(II) salts'
loop_
_citation_id
_citation_journal_full
_citation_year
_citation_journal_volume
_citation_page_first
_citation_page_last
_citation_journal_id_ASTM
primary 'Arkiv foer Kemi' 1965 23 205 211 ARKEAD
loop_
_publ_author_name
'Aurivillius, K.'
_cell_length_a 7.151(3)
_cell_length_b 6.864(2)
_cell_length_c 6.860(3)
_cell_angle_alpha 90.
_cell_angle_beta 126.90(3)
_cell_angle_gamma 90.
_cell_volume 269.27
_cell_formula_units_Z 2
_symmetry_space_group_name_H-M 'P 1 21/c 1'
_symmetry_Int_Tables_number 14
_refine_ls_R_factor_all 0.113
loop_
_symmetry_equiv_pos_site_id
_symmetry_equiv_pos_as_xyz
1 'x, -y+1/2, z+1/2'
2 '-x, -y, -z'
3 '-x, y+1/2, -z+1/2'
4 'x, y, z'
loop_
_atom_type_symbol
_atom_type_oxidation_number
Hg2+ 2
O2- -2
Cl1- -1
loop_
_atom_site_label
_atom_site_type_symbol
_atom_site_symmetry_multiplicity
_atom_site_Wyckoff_symbol
_atom_site_fract_x
_atom_site_fract_y
_atom_site_fract_z
_atom_site_B_iso_or_equiv
_atom_site_occupancy
_atom_site_attached_hydrogens
Hg1 Hg2+ 2 a 0 0 0 0.7 1. 0
Hg2 Hg2+ 4 e 0.4140(11) 0.3636(6) 0.1486(13) 0.98 1. 0
O1 O2- 4 e 0.348(15) 0.115(84) 0.313(16) -0.72 1. 0
Cl1 Cl1- 4 e 0.1937(71) 0.6194(33) 0.2697(69) 0.65 1. 0
#End of TTdata_28399-ICSD