
#(C) 2017 by FIZ Karlsruhe - Leibniz Institute for Information Infrastructure.  All rights reserved.
data_290306-ICSD
_database_code_ICSD 290306
_audit_creation_date 2014-02-01
_chemical_name_systematic 'Barium cadmium mercuride (3/1/10)'
_chemical_formula_structural 'Ba3 Cd Hg10'
_chemical_formula_sum 'Ba3 Cd1 Hg10'
_chemical_name_structure_type Al11La3
_exptl_crystal_density_diffrn 11.05
_publ_section_title
'Barium-triel-mercuride Ba Mx Hg4-x and Ba3 Mx Hg11-x (M = Ga, In, Cd)'
loop_
_citation_id
_citation_journal_full
_citation_year
_citation_journal_volume
_citation_page_first
_citation_page_last
_citation_journal_id_ASTM
primary 'Zeitschrift fuer Naturforschung, B: Chemical Sciences' 2013 68 307 322
ZNBSEN
loop_
_publ_author_name
'Wendorff, Marco'
'Roehr, Caroline'
_cell_length_a 5.1150(2)
_cell_length_b 9.9154(3)
_cell_length_c 14.9926(5)
_cell_angle_alpha 90.
_cell_angle_beta 90.
_cell_angle_gamma 90.
_cell_volume 760.38
_cell_formula_units_Z 2
_symmetry_space_group_name_H-M 'I m m m'
_symmetry_Int_Tables_number 71
_refine_ls_R_factor_all 0.0482
loop_
_symmetry_equiv_pos_site_id
_symmetry_equiv_pos_as_xyz
1 'x, y, -z'
2 'x, -y, z'
3 '-x, y, z'
4 '-x, -y, -z'
5 '-x, -y, z'
6 '-x, y, -z'
7 'x, -y, -z'
8 'x, y, z'
9 'x+1/2, y+1/2, -z+1/2'
10 'x+1/2, -y+1/2, z+1/2'
11 '-x+1/2, y+1/2, z+1/2'
12 '-x+1/2, -y+1/2, -z+1/2'
13 '-x+1/2, -y+1/2, z+1/2'
14 '-x+1/2, y+1/2, -z+1/2'
15 'x+1/2, -y+1/2, -z+1/2'
16 'x+1/2, y+1/2, z+1/2'
loop_
_atom_type_symbol
_atom_type_oxidation_number
Ba0+ 0
Hg0+ 0
Cd0+ 0
loop_
_atom_site_label
_atom_site_type_symbol
_atom_site_symmetry_multiplicity
_atom_site_Wyckoff_symbol
_atom_site_fract_x
_atom_site_fract_y
_atom_site_fract_z
_atom_site_B_iso_or_equiv
_atom_site_occupancy
_atom_site_attached_hydrogens
Ba1 Ba0+ 2 a 0 0 0 0.0151(5) 1. 0
Ba2 Ba0+ 4 i 0 0 0.29387(9) 0.0037(3) 1. 0
Hg1 Hg0+ 8 l 0 0.29059(7) 0.14000(5) 0.0111(2) 1. 0
Hg2 Hg0+ 8 l 0 0.35610(6) 0.34225(5) 0.0095(2) 1. 0
Hg3 Hg0+ 4 h 0 0.17652(14) 0.5 0.0216(3) 1. 0
Cd1 Cd0+ 2 d 0.5 0 0.5 0.0150(6) 1. 0
#End of TTdata_290306-ICSD