
#(C) 2017 by FIZ Karlsruhe - Leibniz Institute for Information Infrastructure.  All rights reserved.
data_290590-ICSD
_database_code_ICSD 290590
_audit_creation_date 2014-02-01
_chemical_name_systematic 'Zinc dichromate(III)'
_chemical_formula_structural 'Zn (Cr2 O4)'
_chemical_formula_sum 'Cr2 O4 Zn1'
_chemical_name_structure_type CdMn2O4
_exptl_crystal_density_diffrn 5.38
_cell_measurement_temperature 5.
_publ_section_title
'Crystal structures of spin-Jahn-Teller-ordered Mg Cr2 O4 and Zn Cr2 O4'
loop_
_citation_id
_citation_journal_full
_citation_year
_citation_journal_volume
_citation_page_first
_citation_page_last
_citation_journal_id_ASTM
primary 'Journal of Physics: Condensed Matter' 2013 25 326001-1 326001-7 JCOMEL
loop_
_publ_author_name
'Kemei, Moureen C.'
'Barton, Phillip T.'
'Moffitt, Stephanie L.'
'Gaultois, Michael W.'
'Kurzman, Joshua A.'
'Seshadri, Ram'
'Suchomel, Matthew R.'
'Kim, Young-Il'
_cell_length_a 5.88753(1)
_cell_length_b 5.88753(1)
_cell_length_c 8.30895(4)
_cell_angle_alpha 90.
_cell_angle_beta 90.
_cell_angle_gamma 90.
_cell_volume 288.01
_cell_formula_units_Z 4
_symmetry_space_group_name_H-M 'I 41/a m d Z'
_symmetry_Int_Tables_number 141
_refine_ls_R_factor_all 0.0582
loop_
_symmetry_equiv_pos_site_id
_symmetry_equiv_pos_as_xyz
1 'y+1/4, x+3/4, -z+1/4'
2 'y+1/4, -x+3/4, -z+1/4'
3 'x, y+1/2, -z'
4 'x, -y, -z'
5 '-y+3/4, x+3/4, -z+1/4'
6 '-y+3/4, -x+3/4, -z+1/4'
7 '-x, y+1/2, -z'
8 '-x, -y, -z'
9 '-y+3/4, -x+1/4, z+3/4'
10 '-y+3/4, x+1/4, z+3/4'
11 '-x, -y+1/2, z'
12 '-x, y, z'
13 'y+1/4, -x+1/4, z+3/4'
14 'y+1/4, x+1/4, z+3/4'
15 'x, -y+1/2, z'
16 'x, y, z'
17 'y+3/4, x+1/4, -z+3/4'
18 'y+3/4, -x+1/4, -z+3/4'
19 'x+1/2, y, -z+1/2'
20 'x+1/2, -y+1/2, -z+1/2'
21 '-y+1/4, x+1/4, -z+3/4'
22 '-y+1/4, -x+1/4, -z+3/4'
23 '-x+1/2, y, -z+1/2'
24 '-x+1/2, -y+1/2, -z+1/2'
25 '-y+1/4, -x+3/4, z+1/4'
26 '-y+1/4, x+3/4, z+1/4'
27 '-x+1/2, -y, z+1/2'
28 '-x+1/2, y+1/2, z+1/2'
29 'y+3/4, -x+3/4, z+1/4'
30 'y+3/4, x+3/4, z+1/4'
31 'x+1/2, -y, z+1/2'
32 'x+1/2, y+1/2, z+1/2'
loop_
_atom_type_symbol
_atom_type_oxidation_number
Zn2+ 2
Cr3+ 3
O2- -2
loop_
_atom_site_label
_atom_site_type_symbol
_atom_site_symmetry_multiplicity
_atom_site_Wyckoff_symbol
_atom_site_fract_x
_atom_site_fract_y
_atom_site_fract_z
_atom_site_B_iso_or_equiv
_atom_site_occupancy
_atom_site_attached_hydrogens
Zn1 Zn2+ 4 a 0 0.75 0.125 0.00254(5) 1. 0
Cr1 Cr3+ 8 d 0 0 0.5 0.00074(5) 1. 0
O1 O2- 16 h 0 0.5250(4) 0.7379(4) 0.00458(2) 1. 0
#End of TTdata_290590-ICSD