
#(C) 2017 by FIZ Karlsruhe - Leibniz Institute for Information Infrastructure.  All rights reserved.
data_290589-ICSD
_database_code_ICSD 290589
_audit_creation_date 2014-02-01
_chemical_name_systematic 'Magnesium dichromate(III)'
_chemical_formula_structural 'Mg (Cr2 O4)'
_chemical_formula_sum 'Cr2 Mg1 O4'
_chemical_name_structure_type Na2SO4
_exptl_crystal_density_diffrn 4.43
_cell_measurement_temperature 6.
_publ_section_title
'Crystal structures of spin-Jahn-Teller-ordered Mg Cr2 O4 and Zn Cr2 O4'
loop_
_citation_id
_citation_journal_full
_citation_year
_citation_journal_volume
_citation_page_first
_citation_page_last
_citation_journal_id_ASTM
primary 'Journal of Physics: Condensed Matter' 2013 25 326001-1 326001-7 JCOMEL
loop_
_publ_author_name
'Kemei, Moureen C.'
'Barton, Phillip T.'
'Moffitt, Stephanie L.'
'Gaultois, Michael W.'
'Kurzman, Joshua A.'
'Seshadri, Ram'
'Suchomel, Matthew R.'
'Kim, Young-Il'
_cell_length_a 8.3041(2)
_cell_length_b 8.3228(2)
_cell_length_c 8.3526(2)
_cell_angle_alpha 90.
_cell_angle_beta 90.
_cell_angle_gamma 90.
_cell_volume 577.28
_cell_formula_units_Z 8
_symmetry_space_group_name_H-M 'F d d d Z'
_symmetry_Int_Tables_number 70
_refine_ls_R_factor_all 0.0331
loop_
_symmetry_equiv_pos_site_id
_symmetry_equiv_pos_as_xyz
1 'x+3/4, y+3/4, -z'
2 'x+3/4, -y, z+3/4'
3 '-x, y+3/4, z+3/4'
4 '-x, -y, -z'
5 '-x+1/4, -y+1/4, z'
6 '-x+1/4, y, -z+1/4'
7 'x, -y+1/4, -z+1/4'
8 'x, y, z'
9 'x+3/4, y+1/4, -z+1/2'
10 'x+3/4, -y+1/2, z+1/4'
11 '-x, y+1/4, z+1/4'
12 '-x, -y+1/2, -z+1/2'
13 '-x+1/4, -y+3/4, z+1/2'
14 '-x+1/4, y+1/2, -z+3/4'
15 'x, -y+3/4, -z+3/4'
16 'x, y+1/2, z+1/2'
17 'x+1/4, y+3/4, -z+1/2'
18 'x+1/4, -y, z+1/4'
19 '-x+1/2, y+3/4, z+1/4'
20 '-x+1/2, -y, -z+1/2'
21 '-x+3/4, -y+1/4, z+1/2'
22 '-x+3/4, y, -z+3/4'
23 'x+1/2, -y+1/4, -z+3/4'
24 'x+1/2, y, z+1/2'
25 'x+1/4, y+1/4, -z'
26 'x+1/4, -y+1/2, z+3/4'
27 '-x+1/2, y+1/4, z+3/4'
28 '-x+1/2, -y+1/2, -z'
29 '-x+3/4, -y+3/4, z'
30 '-x+3/4, y+1/2, -z+1/4'
31 'x+1/2, -y+3/4, -z+1/4'
32 'x+1/2, y+1/2, z'
loop_
_atom_type_symbol
_atom_type_oxidation_number
Mg2+ 2
Cr3+ 3
O2- -2
loop_
_atom_site_label
_atom_site_type_symbol
_atom_site_symmetry_multiplicity
_atom_site_Wyckoff_symbol
_atom_site_fract_x
_atom_site_fract_y
_atom_site_fract_z
_atom_site_B_iso_or_equiv
_atom_site_occupancy
_atom_site_attached_hydrogens
Mg1 Mg2+ 8 a 0.125 0.125 0.125 0.00290(1) 1. 0
Cr1 Cr3+ 16 d 0.5 0.5 0.5 0.00167(4) 1. 0
O1 O2- 32 h 0.26130(4) 0.26135(4) 0.26093(2) 0.00115(1) 1. 0
#End of TTdata_290589-ICSD