
data_290889-ICSD
_database_code_ICSD 290889
_audit_creation_date 2014-08-01
_chemical_name_systematic 'Titanium iron phosphide (1/1/1)'
_chemical_formula_structural 'Ti Fe P'
_chemical_formula_sum 'Fe1 P1 Ti1'
_chemical_name_structure_type ZrNiAl-Fe2P
_exptl_crystal_density_diffrn 5.93
_cell_measurement_temperature 296.
_cell_length_a 6.1008(3)
_cell_length_b 6.1008(3)
_cell_length_c 3.5090(2)
_cell_angle_alpha 90.
_cell_angle_beta 90.
_cell_angle_gamma 120.
_cell_volume 113.11
_cell_formula_units_Z 3
_symmetry_space_group_name_H-M 'P -6 2 m'
_symmetry_Int_Tables_number 189
_refine_ls_R_factor_all 0.0122
loop_
_symmetry_equiv_pos_site_id
_symmetry_equiv_pos_as_xyz
1 '-x, -x+y, -z'
2 'x-y, -y, -z'
3 'y, x, -z'
4 '-x, -x+y, z'
5 'x-y, -y, z'
6 'y, x, z'
7 '-x+y, -x, -z'
8 '-y, x-y, -z'
9 'x, y, -z'
10 '-x+y, -x, z'
11 '-y, x-y, z'
12 'x, y, z'
loop_
_atom_type_symbol
_atom_type_oxidation_number
Fe0+ 0
Ti0+ 0
P0+ 0
loop_
_atom_site_label
_atom_site_type_symbol
_atom_site_symmetry_multiplicity
_atom_site_Wyckoff_symbol
_atom_site_fract_x
_atom_site_fract_y
_atom_site_fract_z
_atom_site_B_iso_or_equiv
_atom_site_occupancy
_atom_site_attached_hydrogens
Fe1 Fe0+ 3 g 0.75313(8) 0 0.5 0.691(13) 1. 0
Ti1 Ti0+ 3 f 0.41556(12) 0 0 0.480(14) 1. 0
P1 P0+ 1 a 0 0 0 0.76(3) 1. 0
P2 P0+ 2 d 0.3333 0.66667 0.5 0.447(19) 1. 0
loop_
_atom_site_aniso_label
_atom_site_aniso_type_symbol
_atom_site_aniso_U_11
_atom_site_aniso_U_22
_atom_site_aniso_U_33
_atom_site_aniso_U_12
_atom_site_aniso_U_13
_atom_site_aniso_U_23
Fe1 Fe0+ 0.472(10) 0.50(2) 1.11(2) 0.248(11) 0 0
Ti1 Ti0+ 0.51(2) 0.39(3) 0.49(2) 0.196(13) 0 0
P1 P0+ 0.91(4) 0.91(4) 0.45(6) 0.046(2) 0 0
P2 P0+ 0.44(3) 0.44(3) 0.46(4) 0.221(14) 0 0
