
#(C) 2017 by FIZ Karlsruhe - Leibniz Institute for Information Infrastructure.  All rights reserved.
data_290932-ICSD
_database_code_ICSD 290932
_audit_creation_date 2014-08-01
_chemical_name_systematic 'Palladium indium selenide (8/2/1)'
_chemical_formula_structural 'Pd8 In2 Se'
_chemical_formula_sum 'In2 Pd8 Se1'
_exptl_crystal_density_diffrn 10.96
_cell_measurement_temperature 295.
_publ_section_title

;
Pd5 In Se and Pd8 In2 Se - New metal-rich homological selenides with 2D
palladium-indium fragments: Synthesis, structure and bonding
;
loop_
_citation_id
_citation_journal_full
_citation_year
_citation_journal_volume
_citation_page_first
_citation_page_last
_citation_journal_id_ASTM
primary 'Journal of Alloys and Compounds' 2014 589 48 55 JALCEU
loop_
_publ_author_name
'Zakharova, Elena Yu.'
'Kazakov, Sergey M.'
'Isaeva, Anna A.'
'Abakumov, Artem M.'
'Van Tendeloo, Gustaaf'
'Kuznetsov, Alexey N.'
_cell_length_a 4.0047(4)
_cell_length_b 4.0047(4)
_cell_length_c 10.952(1)
_cell_angle_alpha 90.
_cell_angle_beta 90.
_cell_angle_gamma 90.
_cell_volume 175.64
_cell_formula_units_Z 1
_symmetry_space_group_name_H-M 'P 4/m m m'
_symmetry_Int_Tables_number 123
_refine_ls_R_factor_all 0.0281
loop_
_symmetry_equiv_pos_site_id
_symmetry_equiv_pos_as_xyz
1 'y, x, -z'
2 '-y, -x, -z'
3 '-y, x, -z'
4 'y, -x, -z'
5 '-x, y, -z'
6 'x, -y, -z'
7 'x, y, -z'
8 '-x, -y, -z'
9 '-y, -x, z'
10 'y, x, z'
11 'y, -x, z'
12 '-y, x, z'
13 'x, -y, z'
14 '-x, y, z'
15 '-x, -y, z'
16 'x, y, z'
loop_
_atom_type_symbol
_atom_type_oxidation_number
Pd0+ 0
In0+ 0
Se0+ 0
loop_
_atom_site_label
_atom_site_type_symbol
_atom_site_symmetry_multiplicity
_atom_site_Wyckoff_symbol
_atom_site_fract_x
_atom_site_fract_y
_atom_site_fract_z
_atom_site_B_iso_or_equiv
_atom_site_occupancy
_atom_site_attached_hydrogens
Pd1 Pd0+ 2 f 0 0.5 0 0.4(1) 1. 0
Pd2 Pd0+ 4 i 0 0.5 0.3580(7) 0.9(3) 1. 0
Pd3 Pd0+ 2 g 0 0 0.1810(2) 0.7(2) 1. 0
In1 In0+ 2 h 0.5 0.5 0.1797(1) 0.2(1) 1. 0
Se1 Se0+ 1 b 0 0 0.5 10.(2) 1. 0
#End of TTdata_290932-ICSD