
#(C) 2017 by FIZ Karlsruhe - Leibniz Institute for Information Infrastructure.  All rights reserved.
data_291212-ICSD
_database_code_ICSD 291212
_audit_creation_date 2015-08-01
_chemical_name_systematic 'Silicon disulfide'
_chemical_formula_structural 'Si S2'
_chemical_formula_sum 'S2 Si1'
_exptl_crystal_density_diffrn 2.24
_cell_measurement_temperature 293.
_publ_section_title

;
Two high-pressure phases of Si S2 as missing links between the extremes of
only edge-sharing and only corner-sharing tetrahedra
;
loop_
_citation_id
_citation_journal_full
_citation_year
_citation_journal_volume
_citation_page_first
_citation_page_last
_citation_journal_id_ASTM
primary 'Inorganic Chemistry' 2015 54 1240 1253 INOCAJ
loop_
_publ_author_name
'Evers, Juergen'
'Mayer, Peter'
'Moeckl, Leonhard'
'Oehlinger, Gilbert'
'Koeppe, Ralf'
'Schnoeckel, Hansgeorg'
_cell_length_a 6.1992(9)
_cell_length_b 7.8007(10)
_cell_length_c 5.8261(8)
_cell_angle_alpha 90.
_cell_angle_beta 103.954(6)
_cell_angle_gamma 90.
_cell_volume 273.42
_cell_formula_units_Z 4
_symmetry_space_group_name_H-M 'P 1 21/c 1'
_symmetry_Int_Tables_number 14
_refine_ls_R_factor_all 0.0489
loop_
_symmetry_equiv_pos_site_id
_symmetry_equiv_pos_as_xyz
1 'x, -y+1/2, z+1/2'
2 '-x, -y, -z'
3 '-x, y+1/2, -z+1/2'
4 'x, y, z'
loop_
_atom_type_symbol
_atom_type_oxidation_number
Si4+ 4
S2- -2
loop_
_atom_site_label
_atom_site_type_symbol
_atom_site_symmetry_multiplicity
_atom_site_Wyckoff_symbol
_atom_site_fract_x
_atom_site_fract_y
_atom_site_fract_z
_atom_site_B_iso_or_equiv
_atom_site_occupancy
_atom_site_attached_hydrogens
Si1 Si4+ 4 e 0.12272(13) 0.13539(8) 0.11784(13) 0.0271(3) 1. 0
S1 S2- 4 e 0.22702(12) 0.89366(9) 0.01192(12) 0.0309(3) 1. 0
S2 S2- 4 e 0.25265(12) 0.35851(9) 0.99160(11) 0.0302(3) 1. 0
loop_
_atom_site_aniso_label
_atom_site_aniso_type_symbol
_atom_site_aniso_U_11
_atom_site_aniso_U_22
_atom_site_aniso_U_33
_atom_site_aniso_U_12
_atom_site_aniso_U_13
_atom_site_aniso_U_23
Si1 Si4+ 0.0336(5) 0.0248(5) 0.0219(5) 0.0007(3) 0.0046(3) -0.0002(3)
S1 S2- 0.0322(4) 0.0284(5) 0.0308(5) 0.0033(3) 0.0048(3) -0.0027(3)
S2 S2- 0.0379(5) 0.0291(2) 0.0220(4) -0.0038(3) 0.0039(3) -0.0002(2)
#End of TTdata_291212-ICSD