
#(C) 2017 by FIZ Karlsruhe - Leibniz Institute for Information Infrastructure.  All rights reserved.
data_291504-ICSD
_database_code_ICSD 291504
_audit_creation_date 2016-02-01
_chemical_name_systematic 'Manganese disulfide'
_chemical_formula_structural 'Mn S2'
_chemical_formula_sum 'Mn1 S2'
_chemical_name_structure_type PdS2
_exptl_crystal_density_diffrn 3.51
_cell_measurement_temperature 10.
_publ_section_title
'Spin-driven symmetry breaking in the frustrated fcc pyrite Mn S2'
loop_
_citation_id
_citation_journal_full
_citation_year
_citation_journal_volume
_citation_page_first
_citation_page_last
_citation_journal_id_ASTM
primary 'Journal of Physics: Condensed Matter' 2015 27 226003-1 226003-5 JCOMEL
loop_
_publ_author_name
'Kimber, Simon A.J.'
'Chatterji, Tapan'
_cell_length_a 6.085660(4)
_cell_length_b 6.085660(4)
_cell_length_c 6.089694(4)
_cell_angle_alpha 90.
_cell_angle_beta 90.
_cell_angle_gamma 90.
_cell_volume 225.54
_cell_formula_units_Z 4
_symmetry_space_group_name_H-M 'P b c a'
_symmetry_Int_Tables_number 61
loop_
_symmetry_equiv_pos_site_id
_symmetry_equiv_pos_as_xyz
1 'x+1/2, y, -z+1/2'
2 'x, -y+1/2, z+1/2'
3 '-x+1/2, y+1/2, z'
4 '-x, -y, -z'
5 '-x+1/2, -y, z+1/2'
6 '-x, y+1/2, -z+1/2'
7 'x+1/2, -y+1/2, -z'
8 'x, y, z'
loop_
_atom_type_symbol
_atom_type_oxidation_number
Mn2+ 2
S1- -1
loop_
_atom_site_label
_atom_site_type_symbol
_atom_site_symmetry_multiplicity
_atom_site_Wyckoff_symbol
_atom_site_fract_x
_atom_site_fract_y
_atom_site_fract_z
_atom_site_B_iso_or_equiv
_atom_site_occupancy
_atom_site_attached_hydrogens
Mn1 Mn2+ 4 a 0 0 0 . 1. 0
S1 S1- 8 c 0.40006(1) 0.40006(1) 0.40006(1) . 1. 0
#End of TTdata_291504-ICSD