
#(C) 2017 by FIZ Karlsruhe - Leibniz Institute for Information Infrastructure.  All rights reserved.
data_300028-ICSD
_database_code_ICSD 300028
_audit_creation_date 1985-01-24
_audit_update_record 1985-05-24
_chemical_name_systematic 'Tricadmium dioxide chloride'
_chemical_formula_structural 'Cd3 O2 Cl2'
_chemical_formula_sum 'Cd3 Cl2 O2'
_chemical_name_structure_type Na2Zn2O3
_exptl_crystal_density_diffrn 5.71
_publ_section_title 'Cadmium oxide chloride, Cd3 O2 Cl2'
loop_
_citation_id
_citation_journal_full
_citation_year
_citation_journal_volume
_citation_page_first
_citation_page_last
_citation_journal_id_ASTM
primary 'Crystal Structure Communications' 1982 11 1543 1547 CSCMCS
loop_
_publ_author_name
'Stalhandske, C.'
_cell_length_a 6.3816(7)
_cell_length_b 6.6916(9)
_cell_length_c 6.6651(10)
_cell_angle_alpha 90.
_cell_angle_beta 115.92(1)
_cell_angle_gamma 90.
_cell_volume 255.99
_cell_formula_units_Z 2
_symmetry_space_group_name_H-M 'P 1 21/c 1'
_symmetry_Int_Tables_number 14
_refine_ls_R_factor_all 0.02
loop_
_symmetry_equiv_pos_site_id
_symmetry_equiv_pos_as_xyz
1 'x, -y+1/2, z+1/2'
2 '-x, -y, -z'
3 '-x, y+1/2, -z+1/2'
4 'x, y, z'
loop_
_atom_type_symbol
_atom_type_oxidation_number
Cd2+ 2
Cl1- -1
O2- -2
loop_
_atom_site_label
_atom_site_type_symbol
_atom_site_symmetry_multiplicity
_atom_site_Wyckoff_symbol
_atom_site_fract_x
_atom_site_fract_y
_atom_site_fract_z
_atom_site_B_iso_or_equiv
_atom_site_occupancy
_atom_site_attached_hydrogens
Cd1 Cd2+ 2 a 0 0 0 1.34 1. 0
Cd2 Cd2+ 4 e 0.40962(6) 0.37354(5) 0.27081(6) 1.16 1. 0
Cl1 Cl1- 4 e 0.8107(2) 0.1356(2) 0.5688(2) 1.39 1. 0
O1 O2- 4 e 0.3328(6) 0.1142(5) 0.0643(5) 0.85 1. 0
#End of TTdata_300028-ICSD