
#(C) 2017 by FIZ Karlsruhe - Leibniz Institute for Information Infrastructure.  All rights reserved.
data_300132-ICSD
_database_code_ICSD 300132
_audit_creation_date 2005-10-01
_chemical_name_systematic 'Dipotassium sodium catena-di-mue-phosphidoindate'
_chemical_formula_structural 'K2 Na In P2'
_chemical_formula_sum 'In1 K2 Na1 P2'
_chemical_name_structure_type Na3AlAs2
_exptl_crystal_density_diffrn 2.81
_publ_section_title
'Crystal structure of dipotassium sodium catena-di-muephosphidoindate'
loop_
_citation_id
_citation_journal_full
_citation_year
_citation_journal_volume
_citation_page_first
_citation_page_last
_citation_journal_id_ASTM
primary 'Zeitschrift fuer Kristallographie (1979-2010)' 1991 194 131 132 ZEKRDZ
loop_
_publ_author_name
'Somer, M.'
'Peters, K.'
'von Schnering, H.G.'
_cell_length_a 6.6485(15)
_cell_length_b 14.8952(25)
_cell_length_c 6.6269(12)
_cell_angle_alpha 90.
_cell_angle_beta 90.
_cell_angle_gamma 90.
_cell_volume 656.27
_cell_formula_units_Z 4
_symmetry_space_group_name_H-M 'I b a m'
_symmetry_Int_Tables_number 72
_refine_ls_R_factor_all 0.0276
loop_
_symmetry_equiv_pos_site_id
_symmetry_equiv_pos_as_xyz
1 '-x, y, z+1/2'
2 'x, -y, z+1/2'
3 'x, y, -z'
4 '-x, -y, -z'
5 'x, -y, -z+1/2'
6 '-x, y, -z+1/2'
7 '-x, -y, z'
8 'x, y, z'
9 '-x+1/2, y+1/2, z'
10 'x+1/2, -y+1/2, z'
11 'x+1/2, y+1/2, -z+1/2'
12 '-x+1/2, -y+1/2, -z+1/2'
13 'x+1/2, -y+1/2, -z'
14 '-x+1/2, y+1/2, -z'
15 '-x+1/2, -y+1/2, z+1/2'
16 'x+1/2, y+1/2, z+1/2'
loop_
_atom_type_symbol
_atom_type_oxidation_number
In3+ 3
P3- -3
K1+ 1
Na1+ 1
loop_
_atom_site_label
_atom_site_type_symbol
_atom_site_symmetry_multiplicity
_atom_site_Wyckoff_symbol
_atom_site_fract_x
_atom_site_fract_y
_atom_site_fract_z
_atom_site_B_iso_or_equiv
_atom_site_occupancy
_atom_site_attached_hydrogens
In1 In3+ 4 b 0 0.5 0.25 . 1. 0
P1 P3- 8 j 0.21418(25) 0.59868(12) 0 . 1. 0
K1 K1+ 8 j 0.23794(25) 0.82266(12) 0 . 1. 0
Na1 Na1+ 4 a 0 0 0.25 . 1. 0
loop_
_atom_site_aniso_label
_atom_site_aniso_type_symbol
_atom_site_aniso_U_11
_atom_site_aniso_U_22
_atom_site_aniso_U_33
_atom_site_aniso_U_12
_atom_site_aniso_U_13
_atom_site_aniso_U_23
In1 In3+ 0.02238(46) 0.02001(46) 0.01786(46) 0 0 0
P1 P3- 0.02450(79) 0.02134(84) 0.02081(78) 0 0 -0.00187(63)
K1 K1+ 0.03782(87) 0.02801(80) 0.03947(94) 0 0 -0.00292(60)
Na1 Na1+ 0.0247(22) 0.0301(25) 0.0312(27) 0 0 0
#End of TTdata_300132-ICSD