
#(C) 2017 by FIZ Karlsruhe - Leibniz Institute for Information Infrastructure.  All rights reserved.
data_300157-ICSD
_database_code_ICSD 300157
_audit_creation_date 1991-07-10
_audit_update_record 2010-02-01
_chemical_name_systematic 'Potassium tecto-tetraantimonidoaluminate'
_chemical_formula_structural 'K (Al Sb4)'
_chemical_formula_sum 'Al1 K1 Sb4'
_chemical_name_structure_type KAlSb4
_exptl_crystal_density_diffrn 4.7
_publ_section_title
'Crystal structure of potassium tecto-tetraantimonidoaluminate'
loop_
_citation_id
_citation_journal_full
_citation_year
_citation_journal_volume
_citation_page_first
_citation_page_last
_citation_journal_id_ASTM
primary 'Zeitschrift fuer Kristallographie (1979-2010)' 1991 195 308 309 ZEKRDZ
loop_
_publ_author_name
'Cordier, G.'
'Ochmann, H.'
_cell_length_a 10.366(3)
_cell_length_b 4.220(2)
_cell_length_c 17.865(5)
_cell_angle_alpha 90.
_cell_angle_beta 90.
_cell_angle_gamma 90.
_cell_volume 781.5
_cell_formula_units_Z 4
_symmetry_space_group_name_H-M 'P n m a'
_symmetry_Int_Tables_number 62
_refine_ls_R_factor_all 0.099
loop_
_symmetry_equiv_pos_site_id
_symmetry_equiv_pos_as_xyz
1 'x+1/2, y, -z+1/2'
2 'x, -y+1/2, z'
3 '-x+1/2, y+1/2, z+1/2'
4 '-x, -y, -z'
5 '-x+1/2, -y, z+1/2'
6 '-x, y+1/2, -z'
7 'x+1/2, -y+1/2, -z+1/2'
8 'x, y, z'
loop_
_atom_type_symbol
_atom_type_oxidation_number
K0+ 0
Al0+ 0
Sb0+ 0
loop_
_atom_site_label
_atom_site_type_symbol
_atom_site_symmetry_multiplicity
_atom_site_Wyckoff_symbol
_atom_site_fract_x
_atom_site_fract_y
_atom_site_fract_z
_atom_site_B_iso_or_equiv
_atom_site_occupancy
_atom_site_attached_hydrogens
K1 K0+ 4 c 0.3226(9) 0.25 0.0654(4) . 1. 0
Al1 Al0+ 4 c 0.1809(11) 0.25 0.8674(6) . 1. 0
Sb1 Sb0+ 4 c 0.6703(2) 0.25 0.1010(1) . 1. 0
Sb2 Sb0+ 4 c 0.1126(2) 0.25 0.7250(1) . 1. 0
Sb3 Sb0+ 4 c 0.9634(2) 0.25 0.9507(1) . 1. 0
Sb4 Sb0+ 4 c 0.5707(2) 0.25 0.2484(1) . 1. 0
loop_
_atom_site_aniso_label
_atom_site_aniso_type_symbol
_atom_site_aniso_U_11
_atom_site_aniso_U_22
_atom_site_aniso_U_33
_atom_site_aniso_U_12
_atom_site_aniso_U_13
_atom_site_aniso_U_23
K1 K0+ 0.0222(40) 0.0266(45) 0.004(3) 0 0.0010(28) 0
Al1 Al0+ 0.0112(49) 0.0161(56) 0.0077(46) 0 0.0076(39) 0
Sb1 Sb0+ 0.0086(10) 0.007(1) 0.0025(9) 0 -0.0002(7) 0
Sb2 Sb0+ 0.0151(11) 0.0099(11) 0.0011(9) 0 -0.0020(8) 0
Sb3 Sb0+ 0.0076(10) 0.0116(11) 0.0093(9) 0 0.0030(8) 0
Sb4 Sb0+ 0.0144(11) 0.0097(10) 0.0044(9) 0 0.0007(8) 0
#End of TTdata_300157-ICSD