
#(C) 2017 by FIZ Karlsruhe - Leibniz Institute for Information Infrastructure.  All rights reserved.
data_300105-ICSD
_database_code_ICSD 300105
_audit_creation_date 1990-06-08
_audit_update_record 2003-04-01
_chemical_name_systematic 'Tripotassium diarsenidoborate'
_chemical_formula_structural 'K3 (B As2)'
_chemical_formula_sum 'As2 B1 K3'
_chemical_name_structure_type K3BP2
_exptl_crystal_density_diffrn 2.47
_publ_section_title 'Crystal structure of potassium arsenidoborate'
loop_
_citation_id
_citation_journal_full
_citation_year
_citation_journal_volume
_citation_page_first
_citation_page_last
_citation_journal_id_ASTM
primary 'Zeitschrift fuer Kristallographie (1979-2010)' 1990 191 313 314 ZEKRDZ
loop_
_publ_author_name
'Somer, M.'
'Hartweg, M.'
'Peters, K.'
'von Schnering, H.G.'
_cell_length_a 9.609(8)
_cell_length_b 9.109(7)
_cell_length_c 9.194(6)
_cell_angle_alpha 90.
_cell_angle_beta 111.68(3)
_cell_angle_gamma 90.
_cell_volume 747.81
_cell_formula_units_Z 4
_symmetry_space_group_name_H-M 'C 1 2/c 1'
_symmetry_Int_Tables_number 15
_refine_ls_R_factor_all 0.042
loop_
_symmetry_equiv_pos_site_id
_symmetry_equiv_pos_as_xyz
1 'x, -y, z+1/2'
2 '-x, -y, -z'
3 '-x, y, -z+1/2'
4 'x, y, z'
5 'x+1/2, -y+1/2, z+1/2'
6 '-x+1/2, -y+1/2, -z'
7 '-x+1/2, y+1/2, -z+1/2'
8 'x+1/2, y+1/2, z'
loop_
_atom_type_symbol
_atom_type_oxidation_number
K1+ 1
As3- -3
B3+ 3
loop_
_atom_site_label
_atom_site_type_symbol
_atom_site_symmetry_multiplicity
_atom_site_Wyckoff_symbol
_atom_site_fract_x
_atom_site_fract_y
_atom_site_fract_z
_atom_site_B_iso_or_equiv
_atom_site_occupancy
_atom_site_attached_hydrogens
K1 K1+ 8 f 0.20297(41) -.05284(36) 0.48071(38) . 1. 0
K2 K1+ 4 e 0.5 -.14966(54) 0.25 . 1. 0
As1 As3- 8 f 0.36817(18) 0.22240(18) 0.35676(18) . 1. 0
B1 B3+ 4 e 0.5 0.2185(22) 0.25 0.0137(38) 1. 0
loop_
_atom_site_aniso_label
_atom_site_aniso_type_symbol
_atom_site_aniso_U_11
_atom_site_aniso_U_22
_atom_site_aniso_U_33
_atom_site_aniso_U_12
_atom_site_aniso_U_13
_atom_site_aniso_U_23
K1 K1+ 0.0519(21) 0.0266(18) 0.0397(19) -0.0043(14) 0.0116(17) -0.0088(16)
K2 K1+ 0.0499(29) 0.0324(27) 0.0377(26) 0 0.0103(23) 0
As1 As3- 0.04025(99) 0.03067(90) 0.03519(93) 0.00229(67) 0.01734(72)
-0.00038(77)
#End of TTdata_300105-ICSD