
#(C) 2017 by FIZ Karlsruhe - Leibniz Institute for Information Infrastructure.  All rights reserved.
data_300104-ICSD
_database_code_ICSD 300104
_audit_creation_date 1990-06-08
_audit_update_record 2012-02-01
_chemical_name_systematic 'Tripotassium diphosphidoborate'
_chemical_formula_structural 'K3 (B P2)'
_chemical_formula_sum 'B1 K3 P2'
_chemical_name_structure_type K3BP2
_exptl_crystal_density_diffrn 1.8
_publ_section_title 'Crystal structure of potassium diphosphidoborate'
loop_
_citation_id
_citation_journal_full
_citation_year
_citation_journal_volume
_citation_page_first
_citation_page_last
_citation_journal_id_ASTM
primary 'Zeitschrift fuer Kristallographie (1979-2010)' 1990 191 311 312 ZEKRDZ
loop_
_publ_author_name
'Somer, M.'
'Hartweg, M.'
'Peters, K.'
'von Schnering, H.G.'
_cell_length_a 9.362(2)
_cell_length_b 8.894(2)
_cell_length_c 9.013(2)
_cell_angle_alpha 90.
_cell_angle_beta 110.985(20)
_cell_angle_gamma 90.
_cell_volume 700.7
_cell_formula_units_Z 4
_symmetry_space_group_name_H-M 'C 1 2/c 1'
_symmetry_Int_Tables_number 15
_refine_ls_R_factor_all 0.042
loop_
_symmetry_equiv_pos_site_id
_symmetry_equiv_pos_as_xyz
1 'x, -y, z+1/2'
2 '-x, -y, -z'
3 '-x, y, -z+1/2'
4 'x, y, z'
5 'x+1/2, -y+1/2, z+1/2'
6 '-x+1/2, -y+1/2, -z'
7 '-x+1/2, y+1/2, -z+1/2'
8 'x+1/2, y+1/2, z'
loop_
_atom_type_symbol
_atom_type_oxidation_number
K1+ 1
P3- -3
B3+ 3
loop_
_atom_site_label
_atom_site_type_symbol
_atom_site_symmetry_multiplicity
_atom_site_Wyckoff_symbol
_atom_site_fract_x
_atom_site_fract_y
_atom_site_fract_z
_atom_site_B_iso_or_equiv
_atom_site_occupancy
_atom_site_attached_hydrogens
K1 K1+ 8 f 0.20568(12) -.04984(10) 0.48174(11) . 1. 0
K2 K1+ 4 e 0.5 -.15424(16) 0.25 . 1. 0
P1 P3- 8 f 0.37281(13) 0.22275(14) 0.35499(14) . 1. 0
B1 B3+ 4 e 0.5 0.21851(72) 0.25 . 1. 0
loop_
_atom_site_aniso_label
_atom_site_aniso_type_symbol
_atom_site_aniso_U_11
_atom_site_aniso_U_22
_atom_site_aniso_U_33
_atom_site_aniso_U_12
_atom_site_aniso_U_13
_atom_site_aniso_U_23
K1 K1+ 0.04959(68) 0.03786(60) 0.04197(60) -0.00258(49) 0.01248(49) -0.00721(55)
K2 K1+ 0.04334(88) 0.04884(94) 0.04181(86) 0 0.00938(71) 0
P1 P3- 0.04155(72) 0.04264(74) 0.03978(73) 0.00210(57) 0.01965(60) 0.00034(64)
B1 B3+ 0.0399(40) 0.0265(35) 0.0275(35) 0 0.0119(32) 0
#End of TTdata_300104-ICSD