
#(C) 2017 by FIZ Karlsruhe - Leibniz Institute for Information Infrastructure.  All rights reserved.
data_300158-ICSD
_database_code_ICSD 300158
_audit_creation_date 1991-07-10
_audit_update_record 2007-08-01
_chemical_name_systematic 'Potassium tecto-tetraantimonidogallate'
_chemical_formula_structural 'K (Ga Sb4)'
_chemical_formula_sum 'Ga1 K1 Sb4'
_chemical_name_structure_type KAlSb4
_exptl_crystal_density_diffrn 5.11
_publ_section_title
'Crystal structure of potassium tecto-tetraantimonidoaluminate'
loop_
_citation_id
_citation_journal_full
_citation_year
_citation_journal_volume
_citation_page_first
_citation_page_last
_citation_journal_id_ASTM
primary 'Zeitschrift fuer Kristallographie (1979-2010)' 1991 195 306 307 ZEKRDZ
loop_
_publ_author_name
'Cordier, G.'
'Ochmann, H.'
_cell_length_a 10.348(3)
_cell_length_b 4.203(2)
_cell_length_c 17.823(5)
_cell_angle_alpha 90.
_cell_angle_beta 90.
_cell_angle_gamma 90.
_cell_volume 775.17
_cell_formula_units_Z 4
_symmetry_space_group_name_H-M 'P n m a'
_symmetry_Int_Tables_number 62
_refine_ls_R_factor_all 0.068
loop_
_symmetry_equiv_pos_site_id
_symmetry_equiv_pos_as_xyz
1 'x+1/2, y, -z+1/2'
2 'x, -y+1/2, z'
3 '-x+1/2, y+1/2, z+1/2'
4 '-x, -y, -z'
5 '-x+1/2, -y, z+1/2'
6 '-x, y+1/2, -z'
7 'x+1/2, -y+1/2, -z+1/2'
8 'x, y, z'
loop_
_atom_type_symbol
_atom_type_oxidation_number
K0+ 0
Ga0+ 0
Sb0+ 0
loop_
_atom_site_label
_atom_site_type_symbol
_atom_site_symmetry_multiplicity
_atom_site_Wyckoff_symbol
_atom_site_fract_x
_atom_site_fract_y
_atom_site_fract_z
_atom_site_B_iso_or_equiv
_atom_site_occupancy
_atom_site_attached_hydrogens
K1 K0+ 4 c 0.3212(5) 0.25 0.0655(3) . 1. 0
Ga1 Ga0+ 4 c 0.1830(2) 0.25 0.8691(1) . 1. 0
Sb1 Sb0+ 4 c 0.6685(1) 0.25 0.1015(1) . 1. 0
Sb2 Sb0+ 4 c 0.1120(1) 0.25 0.7263(1) . 1. 0
Sb3 Sb0+ 4 c 0.9655(1) 0.25 0.9497(1) . 1. 0
Sb4 Sb0+ 4 c 0.5708(1) 0.25 0.2500(1) . 1. 0
loop_
_atom_site_aniso_label
_atom_site_aniso_type_symbol
_atom_site_aniso_U_11
_atom_site_aniso_U_22
_atom_site_aniso_U_33
_atom_site_aniso_U_12
_atom_site_aniso_U_13
_atom_site_aniso_U_23
K1 K0+ 0.0266(24) 0.0265(32) 0.0193(23) 0 -0.0034(19) 0
Ga1 Ga0+ 0.0114(9) 0.0101(13) 0.0106(10) 0 0.0010(8) 0
Sb1 Sb0+ 0.0108(6) 0.0088(7) 0.0121(6) 0 0.0001(5) 0
Sb2 Sb0+ 0.0172(6) 0.0107(8) 0.0087(6) 0 -0.0025(5) 0
Sb3 Sb0+ 0.0109(6) 0.0119(8) 0.0165(7) 0 0.0037(5) 0
Sb4 Sb0+ 0.0170(6) 0.0113(8) 0.0127(6) 0 0.0010(5) 0
#End of TTdata_300158-ICSD