
data_300103-ICSD
_database_code_ICSD 300103
_audit_creation_date 1990-06-08
_audit_update_record 1991-10-30
_chemical_name_systematic 'Copper(I) tetrachlorogallate'
_chemical_formula_structural 'Cu Ga Cl4'
_chemical_formula_sum 'Cl4 Cu1 Ga1'
_exptl_crystal_density_diffrn 3.06
_cell_length_a 5.415(1)
_cell_length_b 5.415(1)
_cell_length_c 10.197(4)
_cell_angle_alpha 90.
_cell_angle_beta 90.
_cell_angle_gamma 90.
_cell_volume 299.
_cell_formula_units_Z 2
_symmetry_space_group_name_H-M 'P -4 2 c'
_symmetry_Int_Tables_number 112
_refine_ls_R_factor_all 0.0354
loop_
_symmetry_equiv_pos_site_id
_symmetry_equiv_pos_as_xyz
1 'y, x, z+1/2'
2 '-y, -x, z+1/2'
3 'y, -x, -z'
4 '-y, x, -z'
5 'x, -y, -z+1/2'
6 '-x, y, -z+1/2'
7 '-x, -y, z'
8 'x, y, z'
loop_
_atom_type_symbol
_atom_type_oxidation_number
Cl1- -1
Ga3+ 3
Cu1+ 1
loop_
_atom_site_label
_atom_site_type_symbol
_atom_site_symmetry_multiplicity
_atom_site_Wyckoff_symbol
_atom_site_fract_x
_atom_site_fract_y
_atom_site_fract_z
_atom_site_B_iso_or_equiv
_atom_site_occupancy
_atom_site_attached_hydrogens
Cl1 Cl1- 8 n -.2392(4) -.2711(4) -.3715(1) . 1. 0
Ga1 Ga3+ 2 b 0 0.5 0.75 . 1. 0
Cu1 Cu1+ 2 e 0 0 0.5 . 1. 0
loop_
_atom_site_aniso_label
_atom_site_aniso_type_symbol
_atom_site_aniso_U_11
_atom_site_aniso_U_22
_atom_site_aniso_U_33
_atom_site_aniso_U_12
_atom_site_aniso_U_13
_atom_site_aniso_U_23
Cl1 Cl1- 0.037(2) 0.050(2) 0.047(1) -.0001(1) -.0033(7) 0.0118(8)
Ga1 Ga3+ 0.0344(9) 0.0337(9) 0.0325(6) 0 0 0
Cu1 Cu1+ 0.0540(8) 0.0540(8) 0.0539(9) 0 0 0
