
#(C) 2017 by FIZ Karlsruhe - Leibniz Institute for Information Infrastructure.  All rights reserved.
data_300217-ICSD
_database_code_ICSD 300217
_audit_creation_date 1992-01-23
_audit_update_record 2007-08-01
_chemical_name_systematic 'Hexarubidium triantimonidoaluminate'
_chemical_formula_structural 'Rb6 (Al Sb3)'
_chemical_formula_sum 'Al1 Rb6 Sb3'
_chemical_name_structure_type Cs6AlSb3
_exptl_crystal_density_diffrn 3.72
_publ_section_title
'Crystal structure of hexarubidium triantimonidoaluminate, Rb6 Al Sb3'
loop_
_citation_id
_citation_journal_full
_citation_year
_citation_journal_volume
_citation_page_first
_citation_page_last
_citation_journal_id_ASTM
primary 'Zeitschrift fuer Kristallographie (1979-2010)' 1992 199 279 280 ZEKRDZ
loop_
_publ_author_name
'Blase, W.'
'Cordier, G.'
'Somer, M.'
_cell_length_a 10.624(3)
_cell_length_b 6.260(3)
_cell_length_c 12.377(4)
_cell_angle_alpha 90.
_cell_angle_beta 100.7(1)
_cell_angle_gamma 90.
_cell_volume 808.84
_cell_formula_units_Z 2
_symmetry_space_group_name_H-M 'P 1 21/m 1'
_symmetry_Int_Tables_number 11
_refine_ls_R_factor_all 0.061
loop_
_symmetry_equiv_pos_site_id
_symmetry_equiv_pos_as_xyz
1 'x, -y+1/2, z'
2 '-x, -y, -z'
3 '-x, y+1/2, -z'
4 'x, y, z'
loop_
_atom_type_symbol
_atom_type_oxidation_number
Rb1+ 1
Al3+ 3
Sb3- -3
loop_
_atom_site_label
_atom_site_type_symbol
_atom_site_symmetry_multiplicity
_atom_site_Wyckoff_symbol
_atom_site_fract_x
_atom_site_fract_y
_atom_site_fract_z
_atom_site_B_iso_or_equiv
_atom_site_occupancy
_atom_site_attached_hydrogens
Rb1 Rb1+ 2 e 0.09456(30) 0.25 0.36749(30) . 1. 0
Rb2 Rb1+ 2 e 0.11903(30) 0.25 0.67241(30) . 1. 0
Rb3 Rb1+ 2 e 0.13453(30) 0.25 0.02067(30) . 1. 0
Rb4 Rb1+ 2 e 0.44649(30) 0.25 0.54648(30) . 1. 0
Rb5 Rb1+ 2 e 0.45967(40) 0.25 0.92412(30) . 1. 0
Rb6 Rb1+ 2 e 0.74878(40) 0.25 0.78218(30) . 1. 0
Al1 Al3+ 2 e 0.67829(90) 0.25 0.28013(70) . 1. 0
Sb1 Sb3- 2 e 0.42983(20) 0.25 0.22787(20) . 1. 0
Sb2 Sb3- 2 e 0.78757(20) 0.25 0.48724(20) . 1. 0
Sb3 Sb3- 2 e 0.82256(20) 0.25 0.12544(20) . 1. 0
loop_
_atom_site_aniso_label
_atom_site_aniso_type_symbol
_atom_site_aniso_U_11
_atom_site_aniso_U_22
_atom_site_aniso_U_33
_atom_site_aniso_U_12
_atom_site_aniso_U_13
_atom_site_aniso_U_23
Rb1 Rb1+ 0.0404(19) 0.0267(18) 0.0323(18) 0 0.0000(14) 0
Rb2 Rb1+ 0.0354(18) 0.0286(18) 0.0351(18) 0 0.0047(14) 0
Rb3 Rb1+ 0.0231(15) 0.0319(19) 0.0363(18) 0 0.0031(13) 0
Rb4 Rb1+ 0.0306(17) 0.0373(21) 0.0444(20) 0 0.0111(15) 0
Rb5 Rb1+ 0.0571(24) 0.0471(25) 0.0389(20) 0 0.0186(18) 0
Rb6 Rb1+ 0.0425(20) 0.0327(21) 0.0464(21) 0 0.0095(16) 0
Al1 Al3+ 0.0264(48) 0.0220(51) 0.0160(42) 0 0.0099(36) 0
Sb1 Sb3- 0.0215(11) 0.0281(13) 0.0248(11) 0 0.00099(80) 0
Sb2 Sb3- 0.0216(10) 0.0195(11) 0.0202(10) 0 0.00303(80) 0
Sb3 Sb3- 0.0276(11) 0.0292(13) 0.0221(10) 0 0.00838(80) 0
#End of TTdata_300217-ICSD