
data_30082-ICSD
_database_code_ICSD 30082
_audit_creation_date 1980-01-01
_audit_update_record 1984-11-02
_chemical_name_systematic 'Calcium cadmium (3/2)'
_chemical_formula_structural 'Ca3 Cd2'
_chemical_formula_sum 'Ca3 Cd2'
_chemical_name_structure_type Al2Gd3
_exptl_crystal_density_diffrn 3.64
_cell_length_a 8.864
_cell_length_b 8.864
_cell_length_c 8.02
_cell_angle_alpha 90.
_cell_angle_beta 90.
_cell_angle_gamma 90.
_cell_volume 630.14
_cell_formula_units_Z 4
_symmetry_space_group_name_H-M 'P 42 n m'
_symmetry_Int_Tables_number 102
loop_
_symmetry_equiv_pos_site_id
_symmetry_equiv_pos_as_xyz
1 '-y+1/2, x+1/2, z+1/2'
2 'y+1/2, -x+1/2, z+1/2'
3 '-y, -x, z'
4 'y, x, z'
5 '-x+1/2, y+1/2, z+1/2'
6 'x+1/2, -y+1/2, z+1/2'
7 '-x, -y, z'
8 'x, y, z'
loop_
_atom_type_symbol
_atom_type_oxidation_number
Ca0+ 0
Cd0+ 0
loop_
_atom_site_label
_atom_site_type_symbol
_atom_site_symmetry_multiplicity
_atom_site_Wyckoff_symbol
_atom_site_fract_x
_atom_site_fract_y
_atom_site_fract_z
_atom_site_B_iso_or_equiv
_atom_site_occupancy
_atom_site_attached_hydrogens
Ca1 Ca0+ 4 c 0.152(1) 0.152(1) 0.268(1) 1.55 1. 0
Ca2 Ca0+ 4 c 0.205(1) 0.205(1) 0.742(1) 1.66 1. 0
Ca3 Ca0+ 4 b 0 0.5 0.517(1) 1.75 1. 0
Cd1 Cd0+ 4 c 0.377(1) 0.377(1) 0.048(2) 1.97 1. 0
Cd2 Cd0+ 4 c 0.396(1) 0.396(1) 0.456(2) 1.9 1. 0
