
#(C) 2017 by FIZ Karlsruhe - Leibniz Institute for Information Infrastructure.  All rights reserved.
data_30362-ICSD
_database_code_ICSD 30362
_audit_creation_date 1980-01-01
_audit_update_record 2012-02-01
_chemical_name_systematic Dinitrotetraamminecopper
_chemical_formula_structural '(Cu (N H3)4 (N O2)2)'
_chemical_formula_sum 'H12 Cu1 N6 O4'
_chemical_name_structure_type Ni(NH3)4(NO2)2
_exptl_crystal_density_diffrn 1.8
_publ_section_title 'Crystal structure of trans-dinitrotetramminecopper'
loop_
_citation_id
_citation_journal_full
_citation_year
_citation_journal_volume
_citation_page_first
_citation_page_last
_citation_journal_id_ASTM
primary Kristallografiya 1961 6 381 388 KRISAJ
loop_
_publ_author_name
'Porai Koshits, M.A.'
'Bukovska, M.V.'
_cell_length_a 11.50(2)
_cell_length_b 6.85(2)
_cell_length_c 5.95(2)
_cell_angle_alpha 90.
_cell_angle_beta 118.(1)
_cell_angle_gamma 90.
_cell_volume 413.85
_cell_formula_units_Z 2
_symmetry_space_group_name_H-M 'C 1 2/m 1'
_symmetry_Int_Tables_number 12
_refine_ls_R_factor_all 0.16
loop_
_symmetry_equiv_pos_site_id
_symmetry_equiv_pos_as_xyz
1 '-x, y, -z'
2 '-x, -y, -z'
3 'x, -y, z'
4 'x, y, z'
5 '-x+1/2, y+1/2, -z'
6 '-x+1/2, -y+1/2, -z'
7 'x+1/2, -y+1/2, z'
8 'x+1/2, y+1/2, z'
loop_
_atom_type_symbol
_atom_type_oxidation_number
Cu2+ 2
N3- -3
N3+ 3
O2- -2
H1+ 1
loop_
_atom_site_label
_atom_site_type_symbol
_atom_site_symmetry_multiplicity
_atom_site_Wyckoff_symbol
_atom_site_fract_x
_atom_site_fract_y
_atom_site_fract_z
_atom_site_B_iso_or_equiv
_atom_site_occupancy
_atom_site_attached_hydrogens
Cu1 Cu2+ 2 a 0 0 0 3.26 1. 0
N1 N3- 8 j 0.067 0.205 0.267 3.26 1. 0
N2 N3+ 4 i 0.23 0 0.0045 3.26 1. 0
O1 O2- 4 i 0.238 0 -.199 3.26 1. 0
O2 O2- 4 i 0.335 0 0.2 3.26 1. 0
#End of TTdata_30362-ICSD