
#(C) 2017 by FIZ Karlsruhe - Leibniz Institute for Information Infrastructure.  All rights reserved.
data_30372-ICSD
_database_code_ICSD 30372
_audit_creation_date 1980-01-01
_audit_update_record 2010-08-01
_chemical_name_systematic 'Dilead dibismuth pentaselenide'
_chemical_formula_structural 'Pb2 Bi2 Se5'
_chemical_formula_sum 'Bi2 Pb2 Se5'
_chemical_name_structure_type Bi2Pb2Se5
_exptl_crystal_density_diffrn 7.58
_publ_section_title 'Electron-diffraction study of the Pb2 Bi2 Se5 structure'
loop_
_citation_id
_citation_journal_full
_citation_year
_citation_journal_volume
_citation_page_first
_citation_page_last
_citation_journal_id_ASTM
primary Kristallografiya 1966 11 736 740 KRISAJ
loop_
_publ_author_name
'Agaev, K.A.'
'Talybov, A.G.'
'Semiletov, S.A.'
_cell_length_a 4.22
_cell_length_b 4.22
_cell_length_c 17.42
_cell_angle_alpha 90.
_cell_angle_beta 90.
_cell_angle_gamma 120.
_cell_volume 268.66
_cell_formula_units_Z 1
_symmetry_space_group_name_H-M 'P -3 m 1'
_symmetry_Int_Tables_number 164
_refine_ls_R_factor_all 0.226
loop_
_symmetry_equiv_pos_site_id
_symmetry_equiv_pos_as_xyz
1 'x-y, -y, -z'
2 '-x, -x+y, -z'
3 'y, x, -z'
4 'x-y, x, -z'
5 'y, -x+y, -z'
6 '-x, -y, -z'
7 '-x+y, y, z'
8 'x, x-y, z'
9 '-y, -x, z'
10 '-x+y, -x, z'
11 '-y, x-y, z'
12 'x, y, z'
loop_
_atom_type_symbol
_atom_type_oxidation_number
Se2- -2
Bi3+ 3
Pb2+ 2
loop_
_atom_site_label
_atom_site_type_symbol
_atom_site_symmetry_multiplicity
_atom_site_Wyckoff_symbol
_atom_site_fract_x
_atom_site_fract_y
_atom_site_fract_z
_atom_site_B_iso_or_equiv
_atom_site_occupancy
_atom_site_attached_hydrogens
Se1 Se2- 1 a 0 0 0 . 1. 0
Se2 Se2- 2 d 0.6667 0.3333 0.217 . 1. 0
Se3 Se2- 2 d 0.3333 0.6667 0.45 . 1. 0
Bi1 Bi3+ 2 c 0 0 0.3333 . 1. 0
Pb1 Pb2+ 2 d 0.3333 0.6667 0.108 . 1. 0
#End of TTdata_30372-ICSD