
#(C) 2017 by FIZ Karlsruhe - Leibniz Institute for Information Infrastructure.  All rights reserved.
data_30381-ICSD
_database_code_ICSD 30381
_audit_creation_date 1980-01-01
_audit_update_record 2009-02-01
_chemical_name_systematic 'Tungsten nitride (1/1)'
_chemical_formula_structural 'W N'
_chemical_formula_sum 'N1 W1'
_exptl_crystal_density_diffrn 18.66
_publ_section_title 'An electron-diffraction study of cubic tungsten nitride'
loop_
_citation_id
_citation_journal_full
_citation_year
_citation_journal_volume
_citation_page_first
_citation_page_last
_citation_journal_id_ASTM
primary Kristallografiya 1959 4 545 553 KRISAJ
loop_
_publ_author_name
'Khitrova, V.I.'
'Pinsker, Z.G.'
_cell_length_a 4.13(1)
_cell_length_b 4.13(1)
_cell_length_c 4.13(1)
_cell_angle_alpha 90.
_cell_angle_beta 90.
_cell_angle_gamma 90.
_cell_volume 70.44
_cell_formula_units_Z 4
_symmetry_space_group_name_H-M 'P n -3 m Z'
_symmetry_Int_Tables_number 224
_refine_ls_R_factor_all 0.086
loop_
_symmetry_equiv_pos_site_id
_symmetry_equiv_pos_as_xyz
1 '-y, x+1/2, z+1/2'
2 'y+1/2, x+1/2, -z'
3 'y+1/2, -x, z+1/2'
4 '-y, -x, -z'
5 '-z, x+1/2, y+1/2'
6 'z+1/2, x+1/2, -y'
7 'z+1/2, -x, y+1/2'
8 '-z, -x, -y'
9 'z+1/2, -y, x+1/2'
10 '-z, y+1/2, x+1/2'
11 'z+1/2, y+1/2, -x'
12 '-z, -y, -x'
13 'y+1/2, -z, x+1/2'
14 '-y, z+1/2, x+1/2'
15 'y+1/2, z+1/2, -x'
16 '-y, -z, -x'
17 'x+1/2, z+1/2, -y'
18 'x+1/2, -z, y+1/2'
19 '-x, z+1/2, y+1/2'
20 '-x, -z, -y'
21 'x+1/2, y+1/2, -z'
22 'x+1/2, -y, z+1/2'
23 '-x, y+1/2, z+1/2'
24 '-x, -y, -z'
25 'y, -x+1/2, -z+1/2'
26 '-y+1/2, -x+1/2, z'
27 '-y+1/2, x, -z+1/2'
28 'y, x, z'
29 'z, -x+1/2, -y+1/2'
30 '-z+1/2, -x+1/2, y'
31 '-z+1/2, x, -y+1/2'
32 'z, x, y'
33 '-z+1/2, y, -x+1/2'
34 'z, -y+1/2, -x+1/2'
35 '-z+1/2, -y+1/2, x'
36 'z, y, x'
37 '-y+1/2, z, -x+1/2'
38 'y, -z+1/2, -x+1/2'
39 '-y+1/2, -z+1/2, x'
40 'y, z, x'
41 '-x+1/2, -z+1/2, y'
42 '-x+1/2, z, -y+1/2'
43 'x, -z+1/2, -y+1/2'
44 'x, z, y'
45 '-x+1/2, -y+1/2, z'
46 '-x+1/2, y, -z+1/2'
47 'x, -y+1/2, -z+1/2'
48 'x, y, z'
loop_
_atom_type_symbol
_atom_type_oxidation_number
W0+ 0
N0+ 0
loop_
_atom_site_label
_atom_site_type_symbol
_atom_site_symmetry_multiplicity
_atom_site_Wyckoff_symbol
_atom_site_fract_x
_atom_site_fract_y
_atom_site_fract_z
_atom_site_B_iso_or_equiv
_atom_site_occupancy
_atom_site_attached_hydrogens
W1 W0+ 4 b 0 0 0 0.2 1. 0
N1 N0+ 4 c 0.5 0 0 0.6 1. 0
#End of TTdata_30381-ICSD