
data_30408-ICSD
_database_code_ICSD 30408
_audit_creation_date 1980-01-01
_audit_update_record 2012-08-01
_chemical_name_systematic 'Cesium tetraperoxotantalate'
_chemical_formula_structural 'Cs3 Ta (O2)4'
_chemical_formula_sum 'Cs3 O8 Ta1'
_chemical_name_structure_type K3CrO8
_exptl_crystal_density_diffrn 5.19
_cell_length_a 7.37
_cell_length_b 7.37
_cell_length_c 8.34
_cell_angle_alpha 90.
_cell_angle_beta 90.
_cell_angle_gamma 90.
_cell_volume 453.
_cell_formula_units_Z 2
_symmetry_space_group_name_H-M 'I -4 2 m'
_symmetry_Int_Tables_number 121
loop_
_symmetry_equiv_pos_site_id
_symmetry_equiv_pos_as_xyz
1 '-y, -x, z'
2 'y, x, z'
3 'y, -x, -z'
4 '-y, x, -z'
5 'x, -y, -z'
6 '-x, y, -z'
7 '-x, -y, z'
8 'x, y, z'
9 '-y+1/2, -x+1/2, z+1/2'
10 'y+1/2, x+1/2, z+1/2'
11 'y+1/2, -x+1/2, -z+1/2'
12 '-y+1/2, x+1/2, -z+1/2'
13 'x+1/2, -y+1/2, -z+1/2'
14 '-x+1/2, y+1/2, -z+1/2'
15 '-x+1/2, -y+1/2, z+1/2'
16 'x+1/2, y+1/2, z+1/2'
loop_
_atom_type_symbol
_atom_type_oxidation_number
Ta5+ 5
Cs1+ 1
O1- -1
loop_
_atom_site_label
_atom_site_type_symbol
_atom_site_symmetry_multiplicity
_atom_site_Wyckoff_symbol
_atom_site_fract_x
_atom_site_fract_y
_atom_site_fract_z
_atom_site_B_iso_or_equiv
_atom_site_occupancy
_atom_site_attached_hydrogens
Ta1 Ta5+ 2 a 0 0 0 . 1. 0
Cs1 Cs1+ 2 b 0 0 0.5 . 1. 0
Cs2 Cs1+ 4 d 0 0.5 0.25 . 1. 0
O1 O1- 8 i 0.131 0.131 0.189 . 1. 0
O2 O1- 8 i 0.208 0.208 0.061 . 1. 0
