
data_30411-ICSD
_database_code_ICSD 30411
_audit_creation_date 1986-09-30
_chemical_name_systematic 'Antimony fluoride'
_chemical_formula_structural 'Sb F3'
_chemical_formula_sum 'F3 Sb1'
_exptl_crystal_density_diffrn 4.42
_cell_length_a 7.25
_cell_length_b 7.49
_cell_length_c 4.95
_cell_angle_alpha 90.
_cell_angle_beta 90.
_cell_angle_gamma 90.
_cell_volume 268.8
_cell_formula_units_Z 4
_symmetry_space_group_name_H-M 'A m a 2'
_symmetry_Int_Tables_number 40
loop_
_symmetry_equiv_pos_site_id
_symmetry_equiv_pos_as_xyz
1 'x+1/2, -y, z'
2 '-x+1/2, y, z'
3 '-x, -y, z'
4 'x, y, z'
5 'x+1/2, -y+1/2, z+1/2'
6 '-x+1/2, y+1/2, z+1/2'
7 '-x, -y+1/2, z+1/2'
8 'x, y+1/2, z+1/2'
loop_
_atom_type_symbol
_atom_type_oxidation_number
Sb3+ 3
F1- -1
loop_
_atom_site_label
_atom_site_type_symbol
_atom_site_symmetry_multiplicity
_atom_site_Wyckoff_symbol
_atom_site_fract_x
_atom_site_fract_y
_atom_site_fract_z
_atom_site_B_iso_or_equiv
_atom_site_occupancy
_atom_site_attached_hydrogens
Sb1 Sb3+ 4 b 0.25 0.214 0 . 1. 0
F1 F1- 8 c 0.069 0.286 0.286 . 1. 0
F2 F1- 4 b 0.25 0.467 -.161 . 1. 0
