
#(C) 2017 by FIZ Karlsruhe - Leibniz Institute for Information Infrastructure.  All rights reserved.
data_30525-ICSD
_database_code_ICSD 30525
_audit_creation_date 1980-01-01
_audit_update_record 2015-02-01
_chemical_name_systematic 'Bismuth telluride (1/1)'
_chemical_formula_structural 'Bi Te'
_chemical_formula_sum 'Bi1 Te1'
_chemical_name_structure_type BiSe
_chemical_name_mineral Tsumoite
_exptl_crystal_density_diffrn 8.25
_publ_section_title 'Bismuth tellurides: Bi Te and Bi4 Te3'
loop_
_citation_id
_citation_journal_full
_citation_year
_citation_journal_volume
_citation_page_first
_citation_page_last
_citation_journal_id_ASTM
primary 'Acta Crystallographica B (24,1968-38,1982)' 1979 35 147 149 ACBCAR
loop_
_publ_author_name
'Yamana, K.'
'Kihara, K.'
'Matsumoto, T.'
_cell_length_a 4.423(2)
_cell_length_b 4.423(2)
_cell_length_c 24.002(6)
_cell_angle_alpha 90.
_cell_angle_beta 90.
_cell_angle_gamma 120.
_cell_volume 406.64
_cell_formula_units_Z 6
_symmetry_space_group_name_H-M 'P -3 m 1'
_symmetry_Int_Tables_number 164
_refine_ls_R_factor_all 0.064
loop_
_symmetry_equiv_pos_site_id
_symmetry_equiv_pos_as_xyz
1 'x-y, -y, -z'
2 '-x, -x+y, -z'
3 'y, x, -z'
4 'x-y, x, -z'
5 'y, -x+y, -z'
6 '-x, -y, -z'
7 '-x+y, y, z'
8 'x, x-y, z'
9 '-y, -x, z'
10 '-x+y, -x, z'
11 '-y, x-y, z'
12 'x, y, z'
loop_
_atom_type_symbol
_atom_type_oxidation_number
Te0+ 0
Bi0+ 0
Te0+ 0
Bi0+ 0
Te0+ 0
Bi0+ 0
loop_
_atom_site_label
_atom_site_type_symbol
_atom_site_symmetry_multiplicity
_atom_site_Wyckoff_symbol
_atom_site_fract_x
_atom_site_fract_y
_atom_site_fract_z
_atom_site_B_iso_or_equiv
_atom_site_occupancy
_atom_site_attached_hydrogens
Te1 Te0+ 2 d 0.3333 0.6667 0.0552(3) . 1. 0
Bi1 Bi0+ 2 c 0 0 0.1242(3) . 1. 0
Te2 Te0+ 2 d 0.6667 0.3333 0.2149(5) . 1. 0
Bi2 Bi0+ 2 d 0.3333 0.6667 0.2908(2) . 1. 0
Te3 Te0+ 2 c 0 0 0.3687(6) . 1. 0
Bi3 Bi0+ 2 d 0.6667 0.3333 0.4575(3) . 1. 0
loop_
_atom_site_aniso_label
_atom_site_aniso_type_symbol
_atom_site_aniso_beta_11
_atom_site_aniso_beta_22
_atom_site_aniso_beta_33
_atom_site_aniso_beta_12
_atom_site_aniso_beta_13
_atom_site_aniso_beta_23
Te1 Te0+ 0.0187(43) 0.0187(43) 0.0002(1) 0.0094(22) 0 0
Bi1 Bi0+ 0.0235(32) 0.0235(32) 0.0004(1) 0.0118(16) 0 0
Te2 Te0+ 0.0263(49) 0.0263(49) 0.0012(2) 0.0118(25) 0 0
Bi2 Bi0+ 0.0253(25) 0.0253(25) 0.0005(1) 0.0127(13) 0 0
Te3 Te0+ 0.0178(56) 0.0178(56) 0.0017(2) 0.0089(28) 0 0
Bi3 Bi0+ 0.0190(29) 0.0190(29) 0.0014(1) 0.0095(15) 0 0
#End of TTdata_30525-ICSD