
#(C) 2017 by FIZ Karlsruhe - Leibniz Institute for Information Infrastructure.  All rights reserved.
data_30624-ICSD
_database_code_ICSD 30624
_audit_creation_date 1986-09-30
_audit_update_record 2006-04-01
_chemical_name_systematic 'Vanadium(III) fluoride'
_chemical_formula_structural 'V F3'
_chemical_formula_sum 'F3 V1'
_chemical_name_structure_type FeF3
_exptl_crystal_density_diffrn 3.47
_publ_section_title 'The crystal structure of vanadium trifluoride, V F3'
loop_
_citation_id
_citation_journal_full
_citation_year
_citation_journal_volume
_citation_page_first
_citation_page_last
_citation_journal_id_ASTM
primary 'Acta Crystallographica (1,1948-23,1967)' 1951 4 246 249 ACCRA9
loop_
_publ_author_name
'Jack, K.H.'
'Gutmann, V.'
_cell_length_a 5.373(2)
_cell_length_b 5.373(2)
_cell_length_c 5.373(2)
_cell_angle_alpha 57.52(3)
_cell_angle_beta 57.52(3)
_cell_angle_gamma 57.52(3)
_cell_volume 103.43
_cell_formula_units_Z 2
_symmetry_space_group_name_H-M 'R -3 c R'
_symmetry_Int_Tables_number 167
loop_
_symmetry_equiv_pos_site_id
_symmetry_equiv_pos_as_xyz
1 '-x+1/2, -z+1/2, -y+1/2'
2 '-z+1/2, -y+1/2, -x+1/2'
3 '-y+1/2, -x+1/2, -z+1/2'
4 'x+1/2, z+1/2, y+1/2'
5 'z+1/2, y+1/2, x+1/2'
6 'y+1/2, x+1/2, z+1/2'
7 '-z, -x, -y'
8 '-y, -z, -x'
9 '-x, -y, -z'
10 'z, x, y'
11 'y, z, x'
12 'x, y, z'
loop_
_atom_type_symbol
_atom_type_oxidation_number
V3+ 3
F1- -1
loop_
_atom_site_label
_atom_site_type_symbol
_atom_site_symmetry_multiplicity
_atom_site_Wyckoff_symbol
_atom_site_fract_x
_atom_site_fract_y
_atom_site_fract_z
_atom_site_B_iso_or_equiv
_atom_site_occupancy
_atom_site_attached_hydrogens
V1 V3+ 2 b 0 0 0 . 1. 0
F1 F1- 6 e -.145(15) 0.645(15) 0.25 . 1. 0
#End of TTdata_30624-ICSD