
#(C) 2017 by FIZ Karlsruhe - Leibniz Institute for Information Infrastructure.  All rights reserved.
data_30793-ICSD
_database_code_ICSD 30793
_audit_creation_date 1984-11-06
_audit_update_record 2012-08-01
_chemical_name_systematic 'Tetrazinc disilicate dihydroxide'
_chemical_formula_structural 'Zn4 (Si2 O7) (O H)2'
_chemical_formula_sum 'H2 O9 Si2 Zn4'
_chemical_name_structure_type Zn4Si2O7(OH)2
_chemical_name_mineral Hemimorphite
_exptl_crystal_density_diffrn 3.38
_cell_measurement_temperature 873.
_publ_section_title

;
The effects of heating and dehydration on the crystal structure of
hemimorphite up to 600 degrees C
;
loop_
_citation_id
_citation_journal_full
_citation_year
_citation_journal_volume
_citation_page_first
_citation_page_last
_citation_journal_id_ASTM
primary 'Zeitschrift fuer Kristallographie (1979-2010)' 1981 156 305 321 ZEKRDZ
loop_
_publ_author_name
'Cooper, B.J.'
'Gibbs, G.V.'
'Ross, F.K.'
_cell_length_a 8.268(5)
_cell_length_b 10.784(8)
_cell_length_c 5.113(3)
_cell_angle_alpha 90.
_cell_angle_beta 90.
_cell_angle_gamma 90.
_cell_volume 455.89
_cell_formula_units_Z 2
_symmetry_space_group_name_H-M 'I m m 2'
_symmetry_Int_Tables_number 44
_refine_ls_R_factor_all 0.074
loop_
_symmetry_equiv_pos_site_id
_symmetry_equiv_pos_as_xyz
1 'x, -y, z'
2 '-x, y, z'
3 '-x, -y, z'
4 'x, y, z'
5 'x+1/2, -y+1/2, z+1/2'
6 '-x+1/2, y+1/2, z+1/2'
7 '-x+1/2, -y+1/2, z+1/2'
8 'x+1/2, y+1/2, z+1/2'
loop_
_atom_type_symbol
_atom_type_oxidation_number
Zn2+ 2
Si4+ 4
O2- -2
H1+ 1
loop_
_atom_site_label
_atom_site_type_symbol
_atom_site_symmetry_multiplicity
_atom_site_Wyckoff_symbol
_atom_site_fract_x
_atom_site_fract_y
_atom_site_fract_z
_atom_site_B_iso_or_equiv
_atom_site_occupancy
_atom_site_attached_hydrogens
Zn1 Zn2+ 8 e 0.2074(2) 0.1594(2) 0 . 1. 0
Si1 Si4+ 4 d 0 0.1436(6) 0.5199(33) . 1. 0
O1 O2- 8 e 0.1607(13) 0.2047(13) 0.6461(21) . 1. 0
O2 O2- 4 d 0 0.1662(19) 0.2011(28) . 1. 0
O3 O2- 4 c 0.3026(43) 0 0.0557(48) . 1. 0
O4 O2- 2 a 0 0 0.6067(47) . 1. 0
loop_
_atom_site_aniso_label
_atom_site_aniso_type_symbol
_atom_site_aniso_beta_11
_atom_site_aniso_beta_22
_atom_site_aniso_beta_33
_atom_site_aniso_beta_12
_atom_site_aniso_beta_13
_atom_site_aniso_beta_23
Zn1 Zn2+ 0.0087(3) 0.0043(1) 0.0168(6) -.0015(2) 0.0002(12) -.0015(11)
Si1 Si4+ 0.0062(7) 0.0021(5) 0.0104(27) 0 0 0.0008(18)
O1 O2- 0.0055(17) 0.0043(10) 0.0205(42) -.0042(15) -.0062(30) -.0022(23)
O2 O2- 0.0071(25) 0.0062(18) 0.0183(61) 0 0 -.0080(32)
O3 O2- 0.0513(82) 0.0053(19) 0.029(16) 0 0.0080(91) 0
O4 O2- 0.019(17) 0.0030(23) 0.029(11) 0 0 0
#End of TTdata_30793-ICSD