
#(C) 2017 by FIZ Karlsruhe - Leibniz Institute for Information Infrastructure.  All rights reserved.
data_30850-ICSD
_database_code_ICSD 30850
_audit_creation_date 1984-11-06
_audit_update_record 1984-11-12
_chemical_name_systematic
'Lanthanum palladium phosphide (6/6/17) - Ce6Ni6P17 - type'
_chemical_formula_structural 'La6 Pd6 P17'
_chemical_formula_sum 'La6 P17 Pd6'
_chemical_name_structure_type La6Ni6P17
_exptl_crystal_density_diffrn 5.88
_publ_section_title

;
Ternary Alkaline Earth and Rare Earth Metal Palladium Phosphides with Th Cr2
Si2- and La6 Ni6 P17-Type Structures
;
loop_
_citation_id
_citation_journal_full
_citation_year
_citation_journal_volume
_citation_page_first
_citation_page_last
_citation_journal_id_ASTM
primary 'Journal of the Less-Common Metals' 1983 95 317 322 JCOMAH
loop_
_publ_author_name
'Jeitschko, W.'
'Hofmann, W.K.'
_cell_length_a 10.411(1)
_cell_length_b 10.411(1)
_cell_length_c 10.411(1)
_cell_angle_alpha 90.
_cell_angle_beta 90.
_cell_angle_gamma 90.
_cell_volume 1128.44
_cell_formula_units_Z 2
_symmetry_space_group_name_H-M 'I -4 3 m'
_symmetry_Int_Tables_number 217
loop_
_symmetry_equiv_pos_site_id
_symmetry_equiv_pos_as_xyz
1 '-z, -y, x'
2 '-y, -x, z'
3 '-x, -z, y'
4 '-z, -x, y'
5 '-y, -z, x'
6 '-x, -y, z'
7 '-z, y, -x'
8 '-y, x, -z'
9 '-x, z, -y'
10 '-z, x, -y'
11 '-y, z, -x'
12 '-x, y, -z'
13 'z, -y, -x'
14 'y, -x, -z'
15 'x, -z, -y'
16 'z, -x, -y'
17 'y, -z, -x'
18 'x, -y, -z'
19 'z, y, x'
20 'y, x, z'
21 'x, z, y'
22 'z, x, y'
23 'y, z, x'
24 'x, y, z'
25 '-z+1/2, -y+1/2, x+1/2'
26 '-y+1/2, -x+1/2, z+1/2'
27 '-x+1/2, -z+1/2, y+1/2'
28 '-z+1/2, -x+1/2, y+1/2'
29 '-y+1/2, -z+1/2, x+1/2'
30 '-x+1/2, -y+1/2, z+1/2'
31 '-z+1/2, y+1/2, -x+1/2'
32 '-y+1/2, x+1/2, -z+1/2'
33 '-x+1/2, z+1/2, -y+1/2'
34 '-z+1/2, x+1/2, -y+1/2'
35 '-y+1/2, z+1/2, -x+1/2'
36 '-x+1/2, y+1/2, -z+1/2'
37 'z+1/2, -y+1/2, -x+1/2'
38 'y+1/2, -x+1/2, -z+1/2'
39 'x+1/2, -z+1/2, -y+1/2'
40 'z+1/2, -x+1/2, -y+1/2'
41 'y+1/2, -z+1/2, -x+1/2'
42 'x+1/2, -y+1/2, -z+1/2'
43 'z+1/2, y+1/2, x+1/2'
44 'y+1/2, x+1/2, z+1/2'
45 'x+1/2, z+1/2, y+1/2'
46 'z+1/2, x+1/2, y+1/2'
47 'y+1/2, z+1/2, x+1/2'
48 'x+1/2, y+1/2, z+1/2'
loop_
_atom_type_symbol
_atom_type_oxidation_number
La0+ 0
Pd0+ 0
P0+ 0
loop_
_atom_site_label
_atom_site_type_symbol
_atom_site_symmetry_multiplicity
_atom_site_Wyckoff_symbol
_atom_site_fract_x
_atom_site_fract_y
_atom_site_fract_z
_atom_site_B_iso_or_equiv
_atom_site_occupancy
_atom_site_attached_hydrogens
La1 La0+ 12 e 0.28997 0 0 . 1. 0
Pd1 Pd0+ 12 d 0.25 0.5 0 . 1. 0
P1 P0+ 24 g 0.20148 0.20148 0.43226 . 1. 0
P2 P0+ 8 c 0.21483 0.21483 0.21483 . 1. 0
P3 P0+ 2 a 0 0 0 . 1. 0
#End of TTdata_30850-ICSD