
data_30908-ICSD
_database_code_ICSD 30908
_audit_creation_date 1986-04-14
_chemical_name_systematic 'Cadmium digallium selenide'
_chemical_formula_structural 'Cd Ga2 Se4'
_chemical_formula_sum 'Cd1 Ga2 Se4'
_chemical_name_structure_type Al2CdS4
_exptl_crystal_density_diffrn 5.31
_cell_length_a 5.743(2)
_cell_length_b 5.743(2)
_cell_length_c 10.756(4)
_cell_angle_alpha 90.
_cell_angle_beta 90.
_cell_angle_gamma 90.
_cell_volume 354.75
_cell_formula_units_Z 2
_symmetry_space_group_name_H-M 'I -4'
_symmetry_Int_Tables_number 82
_refine_ls_R_factor_all 0.036
loop_
_symmetry_equiv_pos_site_id
_symmetry_equiv_pos_as_xyz
1 '-y, x, -z'
2 'y, -x, -z'
3 '-x, -y, z'
4 'x, y, z'
5 '-y+1/2, x+1/2, -z+1/2'
6 'y+1/2, -x+1/2, -z+1/2'
7 '-x+1/2, -y+1/2, z+1/2'
8 'x+1/2, y+1/2, z+1/2'
loop_
_atom_type_symbol
_atom_type_oxidation_number
Cd2+ 2
Ga3+ 3
Se2- -2
loop_
_atom_site_label
_atom_site_type_symbol
_atom_site_symmetry_multiplicity
_atom_site_Wyckoff_symbol
_atom_site_fract_x
_atom_site_fract_y
_atom_site_fract_z
_atom_site_B_iso_or_equiv
_atom_site_occupancy
_atom_site_attached_hydrogens
Cd1 Cd2+ 2 a 0 0 0 . 1. 0
Ga1 Ga3+ 2 b 0 0 0.5 . 1. 0
Ga2 Ga3+ 2 c 0 0.5 0.25 . 1. 0
Se1 Se2- 8 g 0.2753(2) 0.2593(2) 0.1390(1) . 1. 0
loop_
_atom_site_aniso_label
_atom_site_aniso_type_symbol
_atom_site_aniso_U_11
_atom_site_aniso_U_22
_atom_site_aniso_U_33
_atom_site_aniso_U_12
_atom_site_aniso_U_13
_atom_site_aniso_U_23
Cd1 Cd2+ 0.0152(5) 0.0152(5) 0.0203(9) 0 0 0
Ga1 Ga3+ 0.0117(6) 0.0117(6) 0.013(1) 0 0 0
Ga2 Ga3+ 0.0148(6) 0.0148(6) 0.0108(8) 0 0 0
Se1 Se2- 0.0128(4) 0.0133(5) 0.0141(4) -.0015(4) 0.0009(4) 0.0002(6)
