
#(C) 2017 by FIZ Karlsruhe - Leibniz Institute for Information Infrastructure.  All rights reserved.
data_31299-ICSD
_database_code_ICSD 31299
_audit_creation_date 1983-12-31
_audit_update_record 2010-08-01
_chemical_name_systematic 'Nickel dichromium oxide'
_chemical_formula_structural 'Ni Cr2 O4'
_chemical_formula_sum 'Cr2 Ni1 O4'
_chemical_name_structure_type NiCr2O4
_chemical_name_mineral Nichromite
_exptl_crystal_density_diffrn 5.24
_cell_measurement_temperature 295.
_publ_section_title

;
Neutron and X-ray powder study of the phase transitions in the spinel Ni Cr2
O4
;
loop_
_citation_id
_citation_journal_full
_citation_year
_citation_journal_volume
_citation_page_first
_citation_page_last
_citation_journal_id_ASTM
primary 'Zeitschrift fuer Kristallographie (1979-2010)' 1983 162 8 9 ZEKRDZ
loop_
_publ_author_name
'Armbruster, T.'
'Lager, G.A.'
'Ihringer, J.'
'Rotella, F.J.'
'Jorgensen, J.D.'
_cell_length_a 8.2565(1)
_cell_length_b 8.2565(1)
_cell_length_c 8.4349(2)
_cell_angle_alpha 90.
_cell_angle_beta 90.
_cell_angle_gamma 90.
_cell_volume 575.01
_cell_formula_units_Z 8
_symmetry_space_group_name_H-M 'F 41/d d m Z'
_symmetry_Int_Tables_number 141
_refine_ls_R_factor_all 0.029
loop_
_symmetry_equiv_pos_site_id
_symmetry_equiv_pos_as_xyz
1 'y+1/2, -x+1/4, -z+3/4'
2 '-y+3/4, x+1/2, -z+1/4'
3 'y, x, z'
4 '-y+1/4, -x+3/4, z+1/2'
5 '-x+1/2, y+1/4, z+3/4'
6 'x+3/4, -y+1/2, z+1/4'
7 'x+1/4, y+3/4, -z+1/2'
8 '-x, -y, -z'
9 '-y+1/2, x+3/4, z+1/4'
10 'y+1/4, -x+1/2, z+3/4'
11 '-y, -x, -z'
12 'y+3/4, x+1/4, -z+1/2'
13 'x+1/2, -y+3/4, -z+1/4'
14 '-x+1/4, y+1/2, -z+3/4'
15 '-x+3/4, -y+1/4, z+1/2'
16 'x, y, z'
17 'y+1/2, -x+3/4, -z+1/4'
18 '-y+3/4, x, -z+3/4'
19 'y, x+1/2, z+1/2'
20 '-y+1/4, -x+1/4, z'
21 '-x+1/2, y+3/4, z+1/4'
22 'x+3/4, -y, z+3/4'
23 'x+1/4, y+1/4, -z'
24 '-x, -y+1/2, -z+1/2'
25 '-y+1/2, x+1/4, z+3/4'
26 'y+1/4, -x, z+1/4'
27 '-y, -x+1/2, -z+1/2'
28 'y+3/4, x+3/4, -z'
29 'x+1/2, -y+1/4, -z+3/4'
30 '-x+1/4, y, -z+1/4'
31 '-x+3/4, -y+3/4, z'
32 'x, y+1/2, z+1/2'
33 'y, -x+1/4, -z+1/4'
34 '-y+1/4, x+1/2, -z+3/4'
35 'y+1/2, x, z+1/2'
36 '-y+3/4, -x+3/4, z'
37 '-x, y+1/4, z+1/4'
38 'x+1/4, -y+1/2, z+3/4'
39 'x+3/4, y+3/4, -z'
40 '-x+1/2, -y, -z+1/2'
41 '-y, x+3/4, z+3/4'
42 'y+3/4, -x+1/2, z+1/4'
43 '-y+1/2, -x, -z+1/2'
44 'y+1/4, x+1/4, -z'
45 'x, -y+3/4, -z+3/4'
46 '-x+3/4, y+1/2, -z+1/4'
47 '-x+1/4, -y+1/4, z'
48 'x+1/2, y, z+1/2'
49 'y, -x+3/4, -z+3/4'
50 '-y+1/4, x, -z+1/4'
51 'y+1/2, x+1/2, z'
52 '-y+3/4, -x+1/4, z+1/2'
53 '-x, y+3/4, z+3/4'
54 'x+1/4, -y, z+1/4'
55 'x+3/4, y+1/4, -z+1/2'
56 '-x+1/2, -y+1/2, -z'
57 '-y, x+1/4, z+1/4'
58 'y+3/4, -x, z+3/4'
59 '-y+1/2, -x+1/2, -z'
60 'y+1/4, x+3/4, -z+1/2'
61 'x, -y+1/4, -z+1/4'
62 '-x+3/4, y, -z+3/4'
63 '-x+1/4, -y+3/4, z+1/2'
64 'x+1/2, y+1/2, z'
loop_
_atom_type_symbol
_atom_type_oxidation_number
Ni2+ 2
Cr3+ 3
O2- -2
loop_
_atom_site_label
_atom_site_type_symbol
_atom_site_symmetry_multiplicity
_atom_site_Wyckoff_symbol
_atom_site_fract_x
_atom_site_fract_y
_atom_site_fract_z
_atom_site_B_iso_or_equiv
_atom_site_occupancy
_atom_site_attached_hydrogens
Ni1 Ni2+ 8 a 0.125 0.125 0.125 0.53(2) 1. 0
Cr1 Cr3+ 16 d 0.5 0.5 0.5 0.15(2) 1. 0
O1 O2- 32 h 0.26010(8) 0.26010(8) 0.26469(12) 0.54(2) 1. 0
#End of TTdata_31299-ICSD