
data_32653-ICSD
_database_code_ICSD 32653
_audit_creation_date 1980-01-01
_audit_update_record 2006-04-01
_chemical_name_systematic 'Trisilver trithioantimonate(III)'
_chemical_formula_structural 'Ag3 (Sb S3)'
_chemical_formula_sum 'Ag3 S3 Sb1'
_chemical_name_structure_type Proustite
_chemical_name_mineral Pyrargyrite
_exptl_crystal_density_diffrn 5.87
_cell_length_a 7.
_cell_length_b 7.
_cell_length_c 7.
_cell_angle_alpha 103.97
_cell_angle_beta 103.97
_cell_angle_gamma 103.97
_cell_volume 306.22
_cell_formula_units_Z 2
_symmetry_space_group_name_H-M 'R 3 c R'
_symmetry_Int_Tables_number 161
loop_
_symmetry_equiv_pos_site_id
_symmetry_equiv_pos_as_xyz
1 'z+1/2, y+1/2, x+1/2'
2 'z, x, y'
3 'x+1/2, z+1/2, y+1/2'
4 'y, z, x'
5 'y+1/2, x+1/2, z+1/2'
6 'x, y, z'
loop_
_atom_type_symbol
_atom_type_oxidation_number
Sb3+ 3
Ag1+ 1
S2- -2
loop_
_atom_site_label
_atom_site_type_symbol
_atom_site_symmetry_multiplicity
_atom_site_Wyckoff_symbol
_atom_site_fract_x
_atom_site_fract_y
_atom_site_fract_z
_atom_site_B_iso_or_equiv
_atom_site_occupancy
_atom_site_attached_hydrogens
Sb1 Sb3+ 2 a 0.0917 0.0917 0.0917 . 1. 0
Ag1 Ag1+ 6 b 0.633 0.5 0 . 1. 0
S1 S2- 6 b 0.795 0.205 0 . 1. 0
