
#(C) 2017 by FIZ Karlsruhe - Leibniz Institute for Information Infrastructure.  All rights reserved.
data_33526-ICSD
_database_code_ICSD 33526
_audit_creation_date 1982-12-31
_chemical_name_systematic 'Carbonylgold(I) chloride'
_chemical_formula_structural '(C O) Au Cl'
_chemical_formula_sum 'C1 Au1 Cl1 O1'
_exptl_crystal_density_diffrn 4.86
_publ_section_title
'The Crystal Structure of Carbonyl Gold(I) Chloride, (OC)AuCl'
loop_
_citation_id
_citation_journal_full
_citation_year
_citation_journal_volume
_citation_page_first
_citation_page_last
_citation_journal_id_ASTM
primary

;
Zeitschrift fuer Naturforschung, Teil B. Anorganische Chemie, Organische
Chemie (33,1978-41,1986)
; 1982 37 823 824 ZNBAD2
loop_
_publ_author_name
'Jones, P.'
_cell_length_a 4.071(1)
_cell_length_b 16.422(4)
_cell_length_c 5.321(3)
_cell_angle_alpha 90.
_cell_angle_beta 90.
_cell_angle_gamma 90.
_cell_volume 355.73
_cell_formula_units_Z 4
_symmetry_space_group_name_H-M 'C m c m'
_symmetry_Int_Tables_number 63
_refine_ls_R_factor_all 0.037
loop_
_symmetry_equiv_pos_site_id
_symmetry_equiv_pos_as_xyz
1 '-x, y, -z+1/2'
2 '-x, -y, z+1/2'
3 '-x, y, z'
4 '-x, -y, -z'
5 'x, -y, z+1/2'
6 'x, y, -z+1/2'
7 'x, -y, -z'
8 'x, y, z'
9 '-x+1/2, y+1/2, -z+1/2'
10 '-x+1/2, -y+1/2, z+1/2'
11 '-x+1/2, y+1/2, z'
12 '-x+1/2, -y+1/2, -z'
13 'x+1/2, -y+1/2, z+1/2'
14 'x+1/2, y+1/2, -z+1/2'
15 'x+1/2, -y+1/2, -z'
16 'x+1/2, y+1/2, z'
loop_
_atom_type_symbol
_atom_type_oxidation_number
Au1+ 1
Cl1- -1
C2+ 2
O2- -2
loop_
_atom_site_label
_atom_site_type_symbol
_atom_site_symmetry_multiplicity
_atom_site_Wyckoff_symbol
_atom_site_fract_x
_atom_site_fract_y
_atom_site_fract_z
_atom_site_B_iso_or_equiv
_atom_site_occupancy
_atom_site_attached_hydrogens
Au1 Au1+ 4 c 0 0.2363(1) 0.25 . 1. 0
Cl1 Cl1- 4 c 0 0.3739(4) 0.25 . 1. 0
C1 C2+ 4 c 0 0.1190(14) 0.25 0.051(4) 1. 0
O1 O2- 4 c 0 0.0515(13) 0.25 0.074(4) 1. 0
loop_
_atom_site_aniso_label
_atom_site_aniso_type_symbol
_atom_site_aniso_U_11
_atom_site_aniso_U_22
_atom_site_aniso_U_33
_atom_site_aniso_U_12
_atom_site_aniso_U_13
_atom_site_aniso_U_23
Au1 Au1+ 0.062(1) 0.051(1) 0.043(1) 0 0 0
Cl1 Cl1- 0.073(3) 0.053(3) 0.066(3) 0 0 0
#End of TTdata_33526-ICSD