
data_33578-ICSD
_database_code_ICSD 33578
_audit_creation_date 1984-10-16
_audit_update_record 2008-08-01
_chemical_name_systematic 'Chromium chloride'
_chemical_formula_structural 'Cr Cl3'
_chemical_formula_sum 'Cl3 Cr1'
_exptl_crystal_density_diffrn 2.91
_cell_length_a 6.02(5)
_cell_length_b 6.02(5)
_cell_length_c 17.30(10)
_cell_angle_alpha 90.
_cell_angle_beta 90.
_cell_angle_gamma 120.
_cell_volume 542.96
_cell_formula_units_Z 6
_symmetry_space_group_name_H-M 'P 32 1 2'
_symmetry_Int_Tables_number 153
loop_
_symmetry_equiv_pos_site_id
_symmetry_equiv_pos_as_xyz
1 'x, x-y, -z'
2 '-x+y, y, -z+2/3'
3 '-y, -x, -z+1/3'
4 '-x+y, -x, z+1/3'
5 '-y, x-y, z+2/3'
6 'x, y, z'
loop_
_atom_type_symbol
_atom_type_oxidation_number
Cr3+ 3
Cl1- -1
loop_
_atom_site_label
_atom_site_type_symbol
_atom_site_symmetry_multiplicity
_atom_site_Wyckoff_symbol
_atom_site_fract_x
_atom_site_fract_y
_atom_site_fract_z
_atom_site_B_iso_or_equiv
_atom_site_occupancy
_atom_site_attached_hydrogens
Cr1 Cr3+ 3 a 0.2222 0.1111 0 . 1. 0
Cr2 Cr3+ 3 a 0.8888 0.4444 0 . 1. 0
Cl1 Cl1- 6 c 0.8889 0.1111 0.0731 . 1. 0
Cl2 Cl1- 6 c 0.5556 0.4444 0.0731 . 1. 0
Cl3 Cl1- 6 c 0.2222 0.7778 0.0731 . 1. 0
