
#(C) 2017 by FIZ Karlsruhe - Leibniz Institute for Information Infrastructure.  All rights reserved.
data_33715-ICSD
_database_code_ICSD 33715
_audit_creation_date 1989-06-21
_audit_update_record 1991-11-23
_chemical_name_systematic 'Titanium nitride (2/1)'
_chemical_formula_structural 'Ti2 N'
_chemical_formula_sum 'N1 Ti2'
_chemical_name_structure_type Rutile-TiO2
_exptl_crystal_density_diffrn 4.91
_publ_section_title 'Structural Studies on the Titanium-Nitrogen System'
loop_
_citation_id
_citation_journal_full
_citation_year
_citation_journal_volume
_citation_page_first
_citation_page_last
_citation_journal_id_ASTM
primary 'Acta Chemica Scandinavica (1-27,1973-42,1988)' 1962 16 1255 1261 ACSAA4
loop_
_publ_author_name
'Holmberg, B.'
_cell_length_a 4.9452
_cell_length_b 4.9452
_cell_length_c 3.0342
_cell_angle_alpha 90.
_cell_angle_beta 90.
_cell_angle_gamma 90.
_cell_volume 74.2
_cell_formula_units_Z 2
_symmetry_space_group_name_H-M 'P 42/m n m'
_symmetry_Int_Tables_number 136
_refine_ls_R_factor_all 0.094
loop_
_symmetry_equiv_pos_site_id
_symmetry_equiv_pos_as_xyz
1 '-y+1/2, x+1/2, -z+1/2'
2 'y+1/2, -x+1/2, -z+1/2'
3 'y, x, -z'
4 '-y, -x, -z'
5 'y+1/2, -x+1/2, z+1/2'
6 '-y+1/2, x+1/2, z+1/2'
7 '-y, -x, z'
8 'y, x, z'
9 'x+1/2, -y+1/2, -z+1/2'
10 '-x+1/2, y+1/2, -z+1/2'
11 'x, y, -z'
12 '-x, -y, -z'
13 '-x+1/2, y+1/2, z+1/2'
14 'x+1/2, -y+1/2, z+1/2'
15 '-x, -y, z'
16 'x, y, z'
loop_
_atom_type_symbol
_atom_type_oxidation_number
Ti1+ 1.5
N3- -3
loop_
_atom_site_label
_atom_site_type_symbol
_atom_site_symmetry_multiplicity
_atom_site_Wyckoff_symbol
_atom_site_fract_x
_atom_site_fract_y
_atom_site_fract_z
_atom_site_B_iso_or_equiv
_atom_site_occupancy
_atom_site_attached_hydrogens
Ti1 Ti1+ 4 f 0.296(1) 0.296(1) 0 1.27 1. 0
N1 N3- 2 a 0 0 0 1.27 1. 0
#End of TTdata_33715-ICSD