
#(C) 2017 by FIZ Karlsruhe - Leibniz Institute for Information Infrastructure.  All rights reserved.
data_33905-ICSD
_database_code_ICSD 33905
_audit_creation_date 1992-01-20
_chemical_name_systematic 'Tetrabarium diarsenide oxide'
_chemical_formula_structural 'Ba4 As2 O'
_chemical_formula_sum 'As2 Ba4 O1'
_chemical_name_structure_type K2MgF4
_exptl_crystal_density_diffrn 5.22
_publ_section_title

;
Darstellung und Kristallstruktur der Strontium- und Bariumpnictidoxide Sr4P2O,
Sr4As2O, Ba4P2O und Ba4As2O
;
loop_
_citation_id
_citation_journal_full
_citation_year
_citation_journal_volume
_citation_page_first
_citation_page_last
_citation_journal_id_ASTM
primary 'Zeitschrift fuer Anorganische und Allgemeine Chemie (1950) (DE)' 1991
597 69 78 ZAACAB
loop_
_publ_author_name
'Hadenfeldt, C.'
'Terschueren, H.U.'
_cell_length_a 5.1246(4)
_cell_length_b 5.1246(4)
_cell_length_c 17.336(1)
_cell_angle_alpha 90.
_cell_angle_beta 90.
_cell_angle_gamma 90.
_cell_volume 455.27
_cell_formula_units_Z 2
_symmetry_space_group_name_H-M 'I 4/m m m'
_symmetry_Int_Tables_number 139
_refine_ls_R_factor_all 0.042
loop_
_symmetry_equiv_pos_site_id
_symmetry_equiv_pos_as_xyz
1 'y, x, -z'
2 '-y, -x, -z'
3 '-y, x, -z'
4 'y, -x, -z'
5 '-x, y, -z'
6 'x, -y, -z'
7 'x, y, -z'
8 '-x, -y, -z'
9 '-y, -x, z'
10 'y, x, z'
11 'y, -x, z'
12 '-y, x, z'
13 'x, -y, z'
14 '-x, y, z'
15 '-x, -y, z'
16 'x, y, z'
17 'y+1/2, x+1/2, -z+1/2'
18 '-y+1/2, -x+1/2, -z+1/2'
19 '-y+1/2, x+1/2, -z+1/2'
20 'y+1/2, -x+1/2, -z+1/2'
21 '-x+1/2, y+1/2, -z+1/2'
22 'x+1/2, -y+1/2, -z+1/2'
23 'x+1/2, y+1/2, -z+1/2'
24 '-x+1/2, -y+1/2, -z+1/2'
25 '-y+1/2, -x+1/2, z+1/2'
26 'y+1/2, x+1/2, z+1/2'
27 'y+1/2, -x+1/2, z+1/2'
28 '-y+1/2, x+1/2, z+1/2'
29 'x+1/2, -y+1/2, z+1/2'
30 '-x+1/2, y+1/2, z+1/2'
31 '-x+1/2, -y+1/2, z+1/2'
32 'x+1/2, y+1/2, z+1/2'
loop_
_atom_type_symbol
_atom_type_oxidation_number
Ba2+ 2
As3- -3
O2- -2
loop_
_atom_site_label
_atom_site_type_symbol
_atom_site_symmetry_multiplicity
_atom_site_Wyckoff_symbol
_atom_site_fract_x
_atom_site_fract_y
_atom_site_fract_z
_atom_site_B_iso_or_equiv
_atom_site_occupancy
_atom_site_attached_hydrogens
Ba1 Ba2+ 4 c 0 0.5 0 . 1. 0
Ba2 Ba2+ 4 e 0 0 0.3242(1) . 1. 0
As1 As3- 4 e 0 0 0.1355(1) . 1. 0
O1 O2- 2 b 0 0 0.5 0.03(1) 1. 0
loop_
_atom_site_aniso_label
_atom_site_aniso_type_symbol
_atom_site_aniso_U_11
_atom_site_aniso_U_22
_atom_site_aniso_U_33
_atom_site_aniso_U_12
_atom_site_aniso_U_13
_atom_site_aniso_U_23
Ba1 Ba2+ 0.0041(5) 0.0149(6) 0.0232(6) 0 0 0
Ba2 Ba2+ 0.0249(5) 0.0249(5) 0.0108(5) 0 0 0
As1 As3- 0.0132(6) 0.0132(6) 0.0074(8) 0 0 0
#End of TTdata_33905-ICSD