
#(C) 2017 by FIZ Karlsruhe - Leibniz Institute for Information Infrastructure.  All rights reserved.
data_34021-ICSD
_database_code_ICSD 34021
_audit_creation_date 1986-10-20
_chemical_name_systematic 'Ammonium iodide tetraammonia'
_chemical_formula_structural 'N H4 I (N H3)4'
_chemical_formula_sum 'H16 I1 N5'
_exptl_crystal_density_diffrn 1.35
_cell_measurement_temperature 133.
_publ_section_title 'The crystal structure of tetrammineammonium iodide'
loop_
_citation_id
_citation_journal_full
_citation_year
_citation_journal_volume
_citation_page_first
_citation_page_last
_citation_journal_id_ASTM
primary 'Acta Chemica Scandinavica (1-27,1973-42,1988)' 1960 14 1466 1474 ACSAA4
loop_
_publ_author_name
'Olovsson, I.'
_cell_length_a 8.94(1)
_cell_length_b 8.94(1)
_cell_length_c 6.55(1)
_cell_angle_alpha 90.
_cell_angle_beta 90.
_cell_angle_gamma 90.
_cell_volume 523.5
_cell_formula_units_Z 2
_symmetry_space_group_name_H-M 'P 4/n S'
_symmetry_Int_Tables_number 85
_refine_ls_R_factor_all 0.105
loop_
_symmetry_equiv_pos_site_id
_symmetry_equiv_pos_as_xyz
1 'y+1/2, -x+1/2, z'
2 '-y+1/2, x+1/2, z'
3 'y, -x, -z'
4 '-y, x, -z'
5 '-x+1/2, -y+1/2, -z'
6 'x+1/2, y+1/2, -z'
7 '-x, -y, z'
8 'x, y, z'
loop_
_atom_type_symbol
_atom_type_oxidation_number
N3- -3
I1- -1
H1+ 1
loop_
_atom_site_label
_atom_site_type_symbol
_atom_site_symmetry_multiplicity
_atom_site_Wyckoff_symbol
_atom_site_fract_x
_atom_site_fract_y
_atom_site_fract_z
_atom_site_B_iso_or_equiv
_atom_site_occupancy
_atom_site_attached_hydrogens
N1 N3- 2 b 0 0 0.5 2.75 1. 0
N2 N3- 8 g 0.246(2) 0.132(2) 0.259(2) 4.23 1. 0
I1 I1- 2 c 0 0.5 0.2414(1) 1.2 1. 0
#End of TTdata_34021-ICSD