
#(C) 2017 by FIZ Karlsruhe - Leibniz Institute for Information Infrastructure.  All rights reserved.
data_35044-ICSD
_database_code_ICSD 35044
_audit_creation_date 1982-12-31
_audit_update_record 2012-08-01
_chemical_name_systematic 'Dichromium(V) diniobium selenide'
_chemical_formula_structural 'Cr2 Nb2 Se10'
_chemical_formula_sum 'Cr2 Nb2 Se10'
_chemical_name_structure_type FeNb3Se10
_exptl_crystal_density_diffrn 5.92
_publ_section_title

;
Characterization of new low Dimensional Conductors With the Fe Nb3 Se10
Structural Type
;
loop_
_citation_id
_citation_journal_full
_citation_year
_citation_journal_volume
_citation_page_first
_citation_page_last
_citation_journal_id_ASTM
primary 'Materials Research Bulletin' 1982 17 1071 1079 MRBUAC
loop_
_publ_author_name
'Ben Salem, A.'
'Meerschaut, A.'
'Guemas, L.'
'Rouxel, J.'
_cell_length_a 9.192(2)
_cell_length_b 3.5086(7)
_cell_length_c 10.409(2)
_cell_angle_alpha 90.
_cell_angle_beta 115.67(1)
_cell_angle_gamma 90.
_cell_volume 302.57
_cell_formula_units_Z 1
_symmetry_space_group_name_H-M 'P 1 21/m 1'
_symmetry_Int_Tables_number 11
_refine_ls_R_factor_all 0.089
loop_
_symmetry_equiv_pos_site_id
_symmetry_equiv_pos_as_xyz
1 'x, -y+1/2, z'
2 '-x, -y, -z'
3 '-x, y+1/2, -z'
4 'x, y, z'
loop_
_atom_type_symbol
_atom_type_oxidation_number
Cr3+ 3
Nb5+ 5
Se2- -2
Se1- -1
Se2- -2
loop_
_atom_site_label
_atom_site_type_symbol
_atom_site_symmetry_multiplicity
_atom_site_Wyckoff_symbol
_atom_site_fract_x
_atom_site_fract_y
_atom_site_fract_z
_atom_site_B_iso_or_equiv
_atom_site_occupancy
_atom_site_attached_hydrogens
Cr1 Cr3+ 2 e 0.4337(9) 0.75 0.0998(8) . 1. 0
Nb1 Nb5+ 2 e 0.2709(5) 0.25 0.3638(4) . 1. 0
Se1 Se2- 2 e 0.4861(6) 0.75 0.3664(5) . 1. 0
Se2 Se1- 2 e 0.1631(6) 0.75 0.4943(5) . 1. 0
Se3 Se1- 2 e 0.0324(6) 0.75 0.2456(5) . 1. 0
Se4 Se2- 2 e 0.2274(6) 0.25 0.0876(5) . 1. 0
Se5 Se2- 2 e 0.6512(7) 0.25 0.1589(5) . 1. 0
loop_
_atom_site_aniso_label
_atom_site_aniso_type_symbol
_atom_site_aniso_beta_11
_atom_site_aniso_beta_22
_atom_site_aniso_beta_33
_atom_site_aniso_beta_12
_atom_site_aniso_beta_13
_atom_site_aniso_beta_23
Cr1 Cr3+ 0.0033(8) 0.0093(48) 0.0038(6) 0 0.0018(3) 0
Nb1 Nb5+ 0.0036(4) 0.0036(24) 0.0026(3) 0 0.0018(2) 0
Se1 Se2- 0.0045(4) 0.0004(26) 0.0030(3) 0 0.0023(3) 0
Se2 Se1- 0.0053(5) 0.0016(27) 0.0035(3) 0 0.0029(3) 0
Se3 Se1- 0.0042(5) 0.0073(29) 0.0044(4) 0 0.0018(3) 0
Se4 Se2- 0.0049(5) 0.0069(30) 0.0029(3) 0 0.0020(3) 0
Se5 Se2- 0.0062(5) 0.0074(30) 0.0042(3) 0 0.0031(3) 0
#End of TTdata_35044-ICSD