
#(C) 2017 by FIZ Karlsruhe - Leibniz Institute for Information Infrastructure.  All rights reserved.
data_35086-ICSD
_database_code_ICSD 35086
_audit_creation_date 1982-12-31
_audit_update_record 2012-08-01
_chemical_name_systematic 'Dipalladium(III) triyttrium(II) silicide'
_chemical_formula_structural 'Y3 Pd2 Si3'
_chemical_formula_sum 'Pd2 Si3 Y3'
_chemical_name_structure_type Hf3Ni2Si3
_exptl_crystal_density_diffrn 5.99
_publ_section_title

;
Orthorhombic palladium yttrium silicide Y3 Pd2 Si3 and rhodium yttrium
silicide Y3 Rh2 Si3 with Hf3 Ni2 Si3 structure type
;
loop_
_citation_id
_citation_journal_full
_citation_year
_citation_journal_volume
_citation_page_first
_citation_page_last
_citation_journal_id_ASTM
primary 'Acta Crystallographica B (24,1968-38,1982)' 1982 38 2448 2449 ACBCAR
loop_
_publ_author_name
'Paccard, D.'
'le Roy, J.'
'Moreau, J.M.'
_cell_length_a 4.251(3)
_cell_length_b 10.406(8)
_cell_length_c 14.123(7)
_cell_angle_alpha 90.
_cell_angle_beta 90.
_cell_angle_gamma 90.
_cell_volume 624.74
_cell_formula_units_Z 4
_symmetry_space_group_name_H-M 'C m c m'
_symmetry_Int_Tables_number 63
_refine_ls_R_factor_all 0.08
loop_
_symmetry_equiv_pos_site_id
_symmetry_equiv_pos_as_xyz
1 '-x, y, -z+1/2'
2 '-x, -y, z+1/2'
3 '-x, y, z'
4 '-x, -y, -z'
5 'x, -y, z+1/2'
6 'x, y, -z+1/2'
7 'x, -y, -z'
8 'x, y, z'
9 '-x+1/2, y+1/2, -z+1/2'
10 '-x+1/2, -y+1/2, z+1/2'
11 '-x+1/2, y+1/2, z'
12 '-x+1/2, -y+1/2, -z'
13 'x+1/2, -y+1/2, z+1/2'
14 'x+1/2, y+1/2, -z+1/2'
15 'x+1/2, -y+1/2, -z'
16 'x+1/2, y+1/2, z'
loop_
_atom_type_symbol
_atom_type_oxidation_number
Pd0+ 0
Y0+ 0
Si0+ 0
loop_
_atom_site_label
_atom_site_type_symbol
_atom_site_symmetry_multiplicity
_atom_site_Wyckoff_symbol
_atom_site_fract_x
_atom_site_fract_y
_atom_site_fract_z
_atom_site_B_iso_or_equiv
_atom_site_occupancy
_atom_site_attached_hydrogens
Pd1 Pd0+ 8 f 0 0.7024(7) 0.094(3) 0.006(1) 1. 0
Y1 Y0+ 8 f 0 0.4091(5) 0.1117(4) 0.001 1. 0
Y2 Y0+ 4 c 0 0.1337(7) 0.25 0.009(1) 1. 0
Si1 Si0+ 8 f 0 0.105(1) 0.037(1) 0.005(1) 1. 0
Si2 Si0+ 4 c 0 0.834(3) 0.25 0.006(1) 1. 0
#End of TTdata_35086-ICSD