
#(C) 2017 by FIZ Karlsruhe - Leibniz Institute for Information Infrastructure.  All rights reserved.
data_35087-ICSD
_database_code_ICSD 35087
_audit_creation_date 1982-12-31
_audit_update_record 2012-08-01
_chemical_name_systematic 'Yttrium palladium silicide (1/2/1)'
_chemical_formula_structural 'Y Pd2 Si'
_chemical_formula_sum 'Pd2 Si1 Y1'
_chemical_name_structure_type ErPd2Si
_exptl_crystal_density_diffrn 7.9
_publ_section_title 'Structure of Y Pd2 Si, an ordered Fe3C-type'
loop_
_citation_id
_citation_journal_full
_citation_year
_citation_journal_volume
_citation_page_first
_citation_page_last
_citation_journal_id_ASTM
primary 'Acta Crystallographica B (24,1968-38,1982)' 1982 38 2446 2448 ACBCAR
loop_
_publ_author_name
'Moreau, J.M.'
'le Roy, J.'
'Paccard, D.'
_cell_length_a 7.303(2)
_cell_length_b 6.918(2)
_cell_length_c 5.489(1)
_cell_angle_alpha 90.
_cell_angle_beta 90.
_cell_angle_gamma 90.
_cell_volume 277.32
_cell_formula_units_Z 4
_symmetry_space_group_name_H-M 'P n m a'
_symmetry_Int_Tables_number 62
_refine_ls_R_factor_all 0.11
loop_
_symmetry_equiv_pos_site_id
_symmetry_equiv_pos_as_xyz
1 'x+1/2, y, -z+1/2'
2 'x, -y+1/2, z'
3 '-x+1/2, y+1/2, z+1/2'
4 '-x, -y, -z'
5 '-x+1/2, -y, z+1/2'
6 '-x, y+1/2, -z'
7 'x+1/2, -y+1/2, -z+1/2'
8 'x, y, z'
loop_
_atom_type_symbol
_atom_type_oxidation_number
Y0+ 0
Pd0+ 0
Si0+ 0
loop_
_atom_site_label
_atom_site_type_symbol
_atom_site_symmetry_multiplicity
_atom_site_Wyckoff_symbol
_atom_site_fract_x
_atom_site_fract_y
_atom_site_fract_z
_atom_site_B_iso_or_equiv
_atom_site_occupancy
_atom_site_attached_hydrogens
Y1 Y0+ 4 c 0.0303(9) 0.25 0.144(2) 0.1(2) 1. 0
Pd1 Pd0+ 8 d 0.1767(5) 0.0517(5) 0.5928(8) 0.12(9) 1. 0
Si1 Si0+ 4 c 0.362(3) 0.25 0.853(5) 1.2(5) 1. 0
#End of TTdata_35087-ICSD