
#(C) 2017 by FIZ Karlsruhe - Leibniz Institute for Information Infrastructure.  All rights reserved.
data_35116-ICSD
_database_code_ICSD 35116
_audit_creation_date 1982-12-31
_chemical_name_systematic 'Technetium(I) phosphide'
_chemical_formula_structural 'Tc3 P'
_chemical_formula_sum 'P1 Tc3'
_chemical_name_structure_type Ni3P
_exptl_crystal_density_diffrn 10.05
_publ_section_title
'Preparation and crystal structures of technetium phosphides'
loop_
_citation_id
_citation_journal_full
_citation_year
_citation_journal_volume
_citation_page_first
_citation_page_last
_citation_journal_id_ASTM
primary 'Journal of Solid State Chemistry' 1982 44 134 140 JSSCBI
loop_
_publ_author_name
'Ruehl, R.'
'Jeitschko, W.'
'Schwochau, K.'
_cell_length_a 9.568(5)
_cell_length_b 9.568(5)
_cell_length_c 4.736(3)
_cell_angle_alpha 90.
_cell_angle_beta 90.
_cell_angle_gamma 90.
_cell_volume 433.56
_cell_formula_units_Z 8
_symmetry_space_group_name_H-M 'I -4'
_symmetry_Int_Tables_number 82
_refine_ls_R_factor_all 0.039
loop_
_symmetry_equiv_pos_site_id
_symmetry_equiv_pos_as_xyz
1 '-y, x, -z'
2 'y, -x, -z'
3 '-x, -y, z'
4 'x, y, z'
5 '-y+1/2, x+1/2, -z+1/2'
6 'y+1/2, -x+1/2, -z+1/2'
7 '-x+1/2, -y+1/2, z+1/2'
8 'x+1/2, y+1/2, z+1/2'
loop_
_atom_type_symbol
_atom_type_oxidation_number
Tc0+ 0
P0+ 0
loop_
_atom_site_label
_atom_site_type_symbol
_atom_site_symmetry_multiplicity
_atom_site_Wyckoff_symbol
_atom_site_fract_x
_atom_site_fract_y
_atom_site_fract_z
_atom_site_B_iso_or_equiv
_atom_site_occupancy
_atom_site_attached_hydrogens
Tc1 Tc0+ 8 g 0.08700(4) 0.10569(4) 0.2204(1) 0.34 1. 0
Tc2 Tc0+ 8 g 0.35297(4) 0.02591(4) 0.9865(1) 0.32 1. 0
Tc3 Tc0+ 8 g 0.17672(4) 0.21948(4) 0.7427(1) 0.37 1. 0
P1 P0+ 8 g 0.2916(1) 0.0348(1) 0.4955(3) 0.4 1. 0
#End of TTdata_35116-ICSD