
#(C) 2017 by FIZ Karlsruhe - Leibniz Institute for Information Infrastructure.  All rights reserved.
data_35377-ICSD
_database_code_ICSD 35377
_audit_creation_date 1983-12-31
_audit_update_record 2012-08-01
_chemical_name_systematic 'Niobium ditelluride hexaiodide'
_chemical_formula_structural 'Nb2 Te2 I6'
_chemical_formula_sum 'I6 Nb2 Te2'
_chemical_name_structure_type NbSeBr3
_exptl_crystal_density_diffrn 5.65
_publ_section_title

;
Nb2 Y2 X6, a Novel Type of Nb(IV) Compounds with Cross-linked Nb2 and Y2
Dumbbells (Y=Se,Te; X=Br,I)
;
loop_
_citation_id
_citation_journal_full
_citation_year
_citation_journal_volume
_citation_page_first
_citation_page_last
_citation_journal_id_ASTM
primary 'Zeitschrift fuer Anorganische und Allgemeine Chemie (1950) (DE)' 1983
497 13 20 ZAACAB
loop_
_publ_author_name
'Franzen, H.F.'
'Hoenle, W.'
'von Schnering, H.G.'
_cell_length_a 13.473(3)
_cell_length_b 7.429(2)
_cell_length_c 7.141(2)
_cell_angle_alpha 90.
_cell_angle_beta 98.52(2)
_cell_angle_gamma 90.
_cell_volume 706.86
_cell_formula_units_Z 2
_symmetry_space_group_name_H-M 'P 1 2/a 1'
_symmetry_Int_Tables_number 13
_refine_ls_R_factor_all 0.026
loop_
_symmetry_equiv_pos_site_id
_symmetry_equiv_pos_as_xyz
1 'x+1/2, -y, z'
2 '-x, -y, -z'
3 '-x+1/2, y, -z'
4 'x, y, z'
loop_
_atom_type_symbol
_atom_type_oxidation_number
I1- -1
Te1- -1
Nb4+ 4
loop_
_atom_site_label
_atom_site_type_symbol
_atom_site_symmetry_multiplicity
_atom_site_Wyckoff_symbol
_atom_site_fract_x
_atom_site_fract_y
_atom_site_fract_z
_atom_site_B_iso_or_equiv
_atom_site_occupancy
_atom_site_attached_hydrogens
I1 I1- 4 g -.04481(5) -.3126(1) 0.8469(1) . 1. 0
I2 I1- 4 g 0.06975(5) -.2005(1) 0.3613(1) . 1. 0
I3 I1- 4 g 0.30757(5) 0.4371(1) 0.2585(1) . 1. 0
Te1 Te1- 4 g 0.19791(5) -.0854(1) 0.8245(1) . 1. 0
Nb1 Nb4+ 4 g 0.15212(6) -.3570(1) 0.0664(1) . 1. 0
loop_
_atom_site_aniso_label
_atom_site_aniso_type_symbol
_atom_site_aniso_U_11
_atom_site_aniso_U_22
_atom_site_aniso_U_33
_atom_site_aniso_U_12
_atom_site_aniso_U_13
_atom_site_aniso_U_23
I1 I1- 0.0148(3) 0.0182(3) 0.0245(3) -.0007(2) 0.0026(2) 0.0051(2)
I2 I1- 0.0251(3) 0.0295(4) 0.0244(3) 0.0019(3) 0.0080(3) -.0057(3)
I3 I1- 0.0167(3) 0.0179(3) 0.0207(3) 0.0014(2) 0.0032(2) 0.0028(2)
Te1 Te1- 0.0201(3) 0.0164(3) 0.0283(3) -.0002(2) 0.0022(3) 0.0066(3)
Nb1 Nb4+ 0.0126(4) 0.0133(4) 0.0173(4) -.0001(3) 0.0040(3) -.0003(3)
#End of TTdata_35377-ICSD