
#(C) 2017 by FIZ Karlsruhe - Leibniz Institute for Information Infrastructure.  All rights reserved.
data_35419-ICSD
_database_code_ICSD 35419
_audit_creation_date 1983-12-31
_audit_update_record 2013-02-01
_chemical_name_systematic 'Titanium(I) dicopper(I) phosphide'
_chemical_formula_structural 'Ti Cu2 P'
_chemical_formula_sum 'Cu2 P1 Ti1'
_exptl_crystal_density_diffrn 6.59
_publ_section_title

;
The crystal structure of Ti Cu2 P and its relationship to the structure of Mn3
As
;
loop_
_citation_id
_citation_journal_full
_citation_year
_citation_journal_volume
_citation_page_first
_citation_page_last
_citation_journal_id_ASTM
primary 'Acta Chemica Scandinavica, Series A: (28,1974-)' 1983 37 93 98 ACAPCT
loop_
_publ_author_name
'Carrillo Cabrera, W.'
_cell_length_a 3.5164(2)
_cell_length_b 3.5164(2)
_cell_length_c 33.574(3)
_cell_angle_alpha 90.
_cell_angle_beta 90.
_cell_angle_gamma 90.
_cell_volume 415.14
_cell_formula_units_Z 8
_symmetry_space_group_name_H-M 'I 41/a m d S'
_symmetry_Int_Tables_number 141
_refine_ls_R_factor_all 0.077
loop_
_symmetry_equiv_pos_site_id
_symmetry_equiv_pos_as_xyz
1 'y, -x+1/2, z+1/4'
2 '-y, x+1/2, z+1/4'
3 'y, -x, -z'
4 '-y, x, -z'
5 '-y, -x+1/2, z+1/4'
6 'y, x+1/2, z+1/4'
7 '-y, -x, -z'
8 'y, x, -z'
9 'x, -y+1/2, -z+1/4'
10 '-x, y+1/2, -z+1/4'
11 'x, -y, z'
12 '-x, y, z'
13 '-x, -y+1/2, -z+1/4'
14 'x, y+1/2, -z+1/4'
15 '-x, -y, z'
16 'x, y, z'
17 'y+1/2, -x, z+3/4'
18 '-y+1/2, x, z+3/4'
19 'y+1/2, -x+1/2, -z+1/2'
20 '-y+1/2, x+1/2, -z+1/2'
21 '-y+1/2, -x, z+3/4'
22 'y+1/2, x, z+3/4'
23 '-y+1/2, -x+1/2, -z+1/2'
24 'y+1/2, x+1/2, -z+1/2'
25 'x+1/2, -y, -z+3/4'
26 '-x+1/2, y, -z+3/4'
27 'x+1/2, -y+1/2, z+1/2'
28 '-x+1/2, y+1/2, z+1/2'
29 '-x+1/2, -y, -z+3/4'
30 'x+1/2, y, -z+3/4'
31 '-x+1/2, -y+1/2, z+1/2'
32 'x+1/2, y+1/2, z+1/2'
loop_
_atom_type_symbol
_atom_type_oxidation_number
Cu1+ 1
P3- -3
Ti1+ 1
loop_
_atom_site_label
_atom_site_type_symbol
_atom_site_symmetry_multiplicity
_atom_site_Wyckoff_symbol
_atom_site_fract_x
_atom_site_fract_y
_atom_site_fract_z
_atom_site_B_iso_or_equiv
_atom_site_occupancy
_atom_site_attached_hydrogens
Cu1 Cu1+ 8 e 0 0 0.09753(3) . 1. 0
Cu2 Cu1+ 8 e 0 0 0.40468(3) . 1. 0
P1 P3- 8 e 0 0 0.29612(5) . 1. 0
Ti1 Ti1+ 8 e 0 0 0.22198(3) 0.0058(2) 1. 0
loop_
_atom_site_aniso_label
_atom_site_aniso_type_symbol
_atom_site_aniso_U_11
_atom_site_aniso_U_22
_atom_site_aniso_U_33
_atom_site_aniso_U_12
_atom_site_aniso_U_13
_atom_site_aniso_U_23
Cu1 Cu1+ 0.0063(3) 0.0063(3) 0.0094(4) 0 0 0
Cu2 Cu1+ 0.0066(3) 0.0066(3) 0.0085(3) 0 0 0
P1 P3- 0.0036(5) 0.0036(5) 0.0060(6) 0 0 0
#End of TTdata_35419-ICSD