
data_35580-ICSD
_database_code_ICSD 35580
_audit_creation_date 1983-12-31
_audit_update_record 2010-02-01
_chemical_name_systematic 'Copper(I) yttrium oxide'
_chemical_formula_structural 'Cu Y O2'
_chemical_formula_sum 'Cu1 O2 Y1'
_chemical_name_structure_type CuFeO2
_exptl_crystal_density_diffrn 5.
_cell_length_a 3.5206(1)
_cell_length_b 3.5206(1)
_cell_length_c 11.418(1)
_cell_angle_alpha 90.
_cell_angle_beta 90.
_cell_angle_gamma 120.
_cell_volume 122.56
_cell_formula_units_Z 2
_symmetry_space_group_name_H-M 'P 63/m m c'
_symmetry_Int_Tables_number 194
_refine_ls_R_factor_all 0.106
loop_
_symmetry_equiv_pos_site_id
_symmetry_equiv_pos_as_xyz
1 'x, x-y, -z+1/2'
2 '-x+y, y, -z+1/2'
3 '-y, -x, -z+1/2'
4 '-x+y, -x, -z+1/2'
5 '-y, x-y, -z+1/2'
6 'x, y, -z+1/2'
7 '-x, -x+y, z+1/2'
8 'x-y, -y, z+1/2'
9 'y, x, z+1/2'
10 'x-y, x, z+1/2'
11 'y, -x+y, z+1/2'
12 '-x, -y, z+1/2'
13 '-x, -x+y, -z'
14 'x-y, -y, -z'
15 'y, x, -z'
16 'x-y, x, -z'
17 'y, -x+y, -z'
18 '-x, -y, -z'
19 'x, x-y, z'
20 '-x+y, y, z'
21 '-y, -x, z'
22 '-x+y, -x, z'
23 '-y, x-y, z'
24 'x, y, z'
loop_
_atom_type_symbol
_atom_type_oxidation_number
Cu1+ 1
Y3+ 3
O2- -2
loop_
_atom_site_label
_atom_site_type_symbol
_atom_site_symmetry_multiplicity
_atom_site_Wyckoff_symbol
_atom_site_fract_x
_atom_site_fract_y
_atom_site_fract_z
_atom_site_B_iso_or_equiv
_atom_site_occupancy
_atom_site_attached_hydrogens
Cu1 Cu1+ 2 c 0.3333 0.6667 0.25 . 1. 0
Y1 Y3+ 2 a 0 0 0 . 1. 0
O1 O2- 4 f 0.3333 0.6667 0.0893(11) . 1. 0
loop_
_atom_site_aniso_label
_atom_site_aniso_type_symbol
_atom_site_aniso_U_11
_atom_site_aniso_U_22
_atom_site_aniso_U_33
_atom_site_aniso_U_12
_atom_site_aniso_U_13
_atom_site_aniso_U_23
Cu1 Cu1+ 0.0135(9) 0.0135(9) 0.0057(9) 0.0067(5) 0 0
Y1 Y3+ 0.0047(4) 0.0047(4) 0.0075(7) 0.0023(2) 0 0
O1 O2- 0.0069(23) 0.0069(23) 0.0051(28) 0.0034(11) 0 0
