
data_36011-ICSD
_database_code_ICSD 36011
_audit_creation_date 1982-12-31
_audit_update_record 2012-08-01
_chemical_name_systematic 'Scandium fluoride'
_chemical_formula_structural 'Sc F3'
_chemical_formula_sum 'F3 Sc1'
_chemical_name_structure_type ScF3
_exptl_crystal_density_diffrn 2.6
_cell_length_a 4.021
_cell_length_b 4.021
_cell_length_c 4.021
_cell_angle_alpha 89.87
_cell_angle_beta 89.87
_cell_angle_gamma 89.87
_cell_volume 65.01
_cell_formula_units_Z 1
_symmetry_space_group_name_H-M 'R 3 2 R'
_symmetry_Int_Tables_number 155
_refine_ls_R_factor_all 0.049
loop_
_symmetry_equiv_pos_site_id
_symmetry_equiv_pos_as_xyz
1 '-z, -y, -x'
2 'z, x, y'
3 '-x, -z, -y'
4 'y, z, x'
5 '-y, -x, -z'
6 'x, y, z'
loop_
_atom_type_symbol
_atom_type_oxidation_number
Sc3+ 3
F1- -1
loop_
_atom_site_label
_atom_site_type_symbol
_atom_site_symmetry_multiplicity
_atom_site_Wyckoff_symbol
_atom_site_fract_x
_atom_site_fract_y
_atom_site_fract_z
_atom_site_B_iso_or_equiv
_atom_site_occupancy
_atom_site_attached_hydrogens
Sc1 Sc3+ 1 a 0 0 0 . 1. 0
F1 F1- 3 e 0.5 0.013(5) -.013(5) . 1. 0
loop_
_atom_site_aniso_label
_atom_site_aniso_type_symbol
_atom_site_aniso_U_11
_atom_site_aniso_U_22
_atom_site_aniso_U_33
_atom_site_aniso_U_12
_atom_site_aniso_U_13
_atom_site_aniso_U_23
Sc1 Sc3+ 0.0038(6) 0.0038(6) 0.0038(6) -.0007(3) -.0007(3) -.0007(3)
F1 F1- 0.0057(17) 0.0278(23) 0.0278(23) -.0001(9) -.0001(9) 0.0017(21)
