
#(C) 2017 by FIZ Karlsruhe - Leibniz Institute for Information Infrastructure.  All rights reserved.
data_36196-ICSD
_database_code_ICSD 36196
_audit_creation_date 1980-01-01
_audit_update_record 2014-08-01
_chemical_name_systematic 'Mercury(I) bromide'
_chemical_formula_structural 'Hg2 Br2'
_chemical_formula_sum 'Br2 Hg2'
_chemical_name_structure_type Hg2Br2
_chemical_name_mineral Kuzminite
_exptl_crystal_density_diffrn 7.72
_publ_section_title 'Parameters in crystal structure. The mercurous halides'
loop_
_citation_id
_citation_journal_full
_citation_year
_citation_journal_volume
_citation_page_first
_citation_page_last
_citation_journal_id_ASTM
primary 'Journal of the American Chemical Society' 1926 48 2113 2131 JACSAT
loop_
_publ_author_name
'Havighurst, R.J.'
_cell_length_a 4.66
_cell_length_b 4.66
_cell_length_c 11.12
_cell_angle_alpha 90.
_cell_angle_beta 90.
_cell_angle_gamma 90.
_cell_volume 241.48
_cell_formula_units_Z 2
_symmetry_space_group_name_H-M 'P 42/m n m'
_symmetry_Int_Tables_number 136
loop_
_symmetry_equiv_pos_site_id
_symmetry_equiv_pos_as_xyz
1 '-y+1/2, x+1/2, -z+1/2'
2 'y+1/2, -x+1/2, -z+1/2'
3 'y, x, -z'
4 '-y, -x, -z'
5 'y+1/2, -x+1/2, z+1/2'
6 '-y+1/2, x+1/2, z+1/2'
7 '-y, -x, z'
8 'y, x, z'
9 'x+1/2, -y+1/2, -z+1/2'
10 '-x+1/2, y+1/2, -z+1/2'
11 'x, y, -z'
12 '-x, -y, -z'
13 '-x+1/2, y+1/2, z+1/2'
14 'x+1/2, -y+1/2, z+1/2'
15 '-x, -y, z'
16 'x, y, z'
loop_
_atom_type_symbol
_atom_type_oxidation_number
Hg1+ 1
Br1- -1
loop_
_atom_site_label
_atom_site_type_symbol
_atom_site_symmetry_multiplicity
_atom_site_Wyckoff_symbol
_atom_site_fract_x
_atom_site_fract_y
_atom_site_fract_z
_atom_site_B_iso_or_equiv
_atom_site_occupancy
_atom_site_attached_hydrogens
Hg1 Hg1+ 4 e 0 0 0.116 . 1. 0
Br1 Br1- 4 e 0 0 0.347 . 1. 0
#End of TTdata_36196-ICSD