
#(C) 2017 by FIZ Karlsruhe - Leibniz Institute for Information Infrastructure.  All rights reserved.
data_36213-ICSD
_database_code_ICSD 36213
_audit_creation_date 1983-12-31
_chemical_name_systematic 'Chromium tungsten(V) oxide'
_chemical_formula_structural 'Cr W O4'
_chemical_formula_sum 'Cr1 O4 W1'
_chemical_name_structure_type VO2(oF96)
_exptl_crystal_density_diffrn 7.95
_publ_section_title 'On the crystal structure of Cr W O4'
loop_
_citation_id
_citation_journal_full
_citation_year
_citation_journal_volume
_citation_page_first
_citation_page_last
_citation_journal_id_ASTM
primary 'Materials Research Bulletin' 1983 18 331 335 MRBUAC
loop_
_publ_author_name
'Shimony, Y.'
'Ben Dor, L.'
_cell_length_a 13.338
_cell_length_b 12.889
_cell_length_c 5.8308
_cell_angle_alpha 90.
_cell_angle_beta 90.
_cell_angle_gamma 90.
_cell_volume 1002.39
_cell_formula_units_Z 16
_symmetry_space_group_name_H-M 'F 2 2 2'
_symmetry_Int_Tables_number 22
loop_
_symmetry_equiv_pos_site_id
_symmetry_equiv_pos_as_xyz
1 '-x, y, -z'
2 'x, -y, -z'
3 '-x, -y, z'
4 'x, y, z'
5 '-x, y+1/2, -z+1/2'
6 'x, -y+1/2, -z+1/2'
7 '-x, -y+1/2, z+1/2'
8 'x, y+1/2, z+1/2'
9 '-x+1/2, y, -z+1/2'
10 'x+1/2, -y, -z+1/2'
11 '-x+1/2, -y, z+1/2'
12 'x+1/2, y, z+1/2'
13 '-x+1/2, y+1/2, -z'
14 'x+1/2, -y+1/2, -z'
15 '-x+1/2, -y+1/2, z'
16 'x+1/2, y+1/2, z'
loop_
_atom_type_symbol
_atom_type_oxidation_number
W5+ 5
Cr3+ 3
O2- -2
loop_
_atom_site_label
_atom_site_type_symbol
_atom_site_symmetry_multiplicity
_atom_site_Wyckoff_symbol
_atom_site_fract_x
_atom_site_fract_y
_atom_site_fract_z
_atom_site_B_iso_or_equiv
_atom_site_occupancy
_atom_site_attached_hydrogens
W1 W5+ 4 a 0 0 0 . 1. 0
W2 W5+ 4 b 0 0 0.5 . 1. 0
W3 W5+ 8 h 0.25 0.25 0.03 . 1. 0
Cr1 Cr3+ 8 j 0.012 0.25 0.25 . 1. 0
Cr2 Cr3+ 8 i 0.25 0.005 0.25 . 1. 0
O1 O2- 16 k 0.104 0.018 0.216 . 1. 0
O2 O2- 16 k 0.264 0.087 0.018 . 1. 0
O3 O2- 8 f 0 0.151 0 . 1. 0
O4 O2- 8 f 0 0.352 0 . 1. 0
O5 O2- 8 j 0.151 0.25 0.25 . 1. 0
O6 O2- 8 j -.152 0.25 0.25 . 1. 0
#End of TTdata_36213-ICSD