
#(C) 2017 by FIZ Karlsruhe - Leibniz Institute for Information Infrastructure.  All rights reserved.
data_36229-ICSD
_database_code_ICSD 36229
_audit_creation_date 1980-01-01
_audit_update_record 2006-04-01
_chemical_name_systematic 'Zinc hydroxide'
_chemical_formula_structural 'Zn (O H)2'
_chemical_formula_sum 'H2 O2 Zn1'
_chemical_name_structure_type Zn(OH)2
_chemical_name_mineral Wuelfingite
_exptl_crystal_density_diffrn 3.03
_publ_section_title 'The crystal structure of zinc hydroxide'
loop_
_citation_id
_citation_journal_full
_citation_year
_citation_journal_volume
_citation_page_first
_citation_page_last
_citation_journal_id_ASTM
primary

;
Zeitschrift fuer Kristallographie, Kristallgeometrie, Kristallphysik,
Kristallchemie (-144,1977)
; 1933 86 8 18 ZEKGAX
loop_
_publ_author_name
'Corey, R.B.'
'Wyckoff, R.W.G.'
_cell_length_a 5.17
_cell_length_b 8.55
_cell_length_c 4.93
_cell_angle_alpha 90.
_cell_angle_beta 90.
_cell_angle_gamma 90.
_cell_volume 217.92
_cell_formula_units_Z 4
_symmetry_space_group_name_H-M 'P 21 21 21'
_symmetry_Int_Tables_number 19
loop_
_symmetry_equiv_pos_site_id
_symmetry_equiv_pos_as_xyz
1 '-x, y+1/2, -z+1/2'
2 'x+1/2, -y+1/2, -z'
3 '-x+1/2, -y, z+1/2'
4 'x, y, z'
loop_
_atom_type_symbol
_atom_type_oxidation_number
Zn2+ 2
O2- -2
H1+ 1
loop_
_atom_site_label
_atom_site_type_symbol
_atom_site_symmetry_multiplicity
_atom_site_Wyckoff_symbol
_atom_site_fract_x
_atom_site_fract_y
_atom_site_fract_z
_atom_site_B_iso_or_equiv
_atom_site_occupancy
_atom_site_attached_hydrogens
Zn1 Zn2+ 4 a 0.1 0.125 0.175 . 1. 0
O1 O2- 4 a 0.43 0.025 0.085 . 1. 0
O2 O2- 4 a 0.125 0.325 0.37 . 1. 0
#End of TTdata_36229-ICSD