
data_36250-ICSD
_database_code_ICSD 36250
_audit_creation_date 1980-01-01
_audit_update_record 2006-04-01
_chemical_name_systematic 'Lead oxide'
_chemical_formula_structural 'Pb O'
_chemical_formula_sum 'O1 Pb1'
_chemical_name_mineral Massicot
_exptl_crystal_density_diffrn 9.71
_cell_length_a 5.48
_cell_length_b 4.74
_cell_length_c 5.88
_cell_angle_alpha 90.
_cell_angle_beta 90.
_cell_angle_gamma 90.
_cell_volume 152.73
_cell_formula_units_Z 4
_symmetry_space_group_name_H-M 'P c a 21'
_symmetry_Int_Tables_number 29
loop_
_symmetry_equiv_pos_site_id
_symmetry_equiv_pos_as_xyz
1 'x+1/2, -y, z'
2 '-x+1/2, y, z+1/2'
3 '-x, -y, z+1/2'
4 'x, y, z'
loop_
_atom_type_symbol
_atom_type_oxidation_number
Pb2+ 2
O2- -2
loop_
_atom_site_label
_atom_site_type_symbol
_atom_site_symmetry_multiplicity
_atom_site_Wyckoff_symbol
_atom_site_fract_x
_atom_site_fract_y
_atom_site_fract_z
_atom_site_B_iso_or_equiv
_atom_site_occupancy
_atom_site_attached_hydrogens
Pb1 Pb2+ 4 a 0.01389 0.25 0.2306 . 1. 0
O1 O2- 4 a 0.15 0.3583 -.1111 . 1. 0
