
#(C) 2017 by FIZ Karlsruhe - Leibniz Institute for Information Infrastructure.  All rights reserved.
data_36277-ICSD
_database_code_ICSD 36277
_audit_creation_date 1980-12-31
_audit_update_record 2006-04-01
_chemical_name_systematic 'Niobium platinum oxygen (5/3/1)'
_chemical_formula_structural 'Nb5 Pt3 O'
_chemical_formula_sum 'Nb5 O1 Pt3'
_exptl_crystal_density_diffrn 12.81
_publ_section_title 'Crystal structure of the R(Nb Pt O) phase'
loop_
_citation_id
_citation_journal_full
_citation_year
_citation_journal_volume
_citation_page_first
_citation_page_last
_citation_journal_id_ASTM
primary 'Journal of the Less-Common Metals' 1980 71 9 12 JCOMAH
loop_
_publ_author_name
'Horyn, R.'
'Andruszkiewicz, R.'
_cell_length_a 7.952(2)
_cell_length_b 7.952(2)
_cell_length_c 5.045(4)
_cell_angle_alpha 90.
_cell_angle_beta 90.
_cell_angle_gamma 120.
_cell_volume 276.28
_cell_formula_units_Z 2
_symmetry_space_group_name_H-M 'P 63/m c m'
_symmetry_Int_Tables_number 193
_refine_ls_R_factor_all 0.136
loop_
_symmetry_equiv_pos_site_id
_symmetry_equiv_pos_as_xyz
1 '-x, -x+y, -z+1/2'
2 'x-y, -y, -z+1/2'
3 'y, x, -z+1/2'
4 '-x+y, -x, -z+1/2'
5 '-y, x-y, -z+1/2'
6 'x, y, -z+1/2'
7 'x, x-y, z+1/2'
8 '-x+y, y, z+1/2'
9 '-y, -x, z+1/2'
10 'x-y, x, z+1/2'
11 'y, -x+y, z+1/2'
12 '-x, -y, z+1/2'
13 'x, x-y, -z'
14 '-x+y, y, -z'
15 '-y, -x, -z'
16 'x-y, x, -z'
17 'y, -x+y, -z'
18 '-x, -y, -z'
19 '-x, -x+y, z'
20 'x-y, -y, z'
21 'y, x, z'
22 '-x+y, -x, z'
23 '-y, x-y, z'
24 'x, y, z'
loop_
_atom_type_symbol
_atom_type_oxidation_number
Nb0+ 0
Pt0+ 0
O0+ 0
loop_
_atom_site_label
_atom_site_type_symbol
_atom_site_symmetry_multiplicity
_atom_site_Wyckoff_symbol
_atom_site_fract_x
_atom_site_fract_y
_atom_site_fract_z
_atom_site_B_iso_or_equiv
_atom_site_occupancy
_atom_site_attached_hydrogens
Nb1 Nb0+ 4 d 0.3333 0.6667 0 . 1. 0
Nb2 Nb0+ 6 g 0.25 0 0.25 . 1. 0
Pt1 Pt0+ 6 g 0.59375 0 0.25 . 1. 0
O1 O0+ 2 b 0 0 0 . 1. 0
#End of TTdata_36277-ICSD