
#(C) 2017 by FIZ Karlsruhe - Leibniz Institute for Information Infrastructure.  All rights reserved.
data_36300-ICSD
_database_code_ICSD 36300
_audit_creation_date 1980-01-01
_audit_update_record 2011-08-01
_chemical_name_systematic 'Cesium dihydrogenphosphate(V)'
_chemical_formula_structural 'Cs (H2 P O4)'
_chemical_formula_sum 'H2 Cs1 O4 P1'
_chemical_name_structure_type CsH2PO4
_exptl_crystal_density_diffrn 3.27
_publ_section_title
'Crystal structure and ferroelectricity of cesium dihydrogen phosphate'
loop_
_citation_id
_citation_journal_full
_citation_year
_citation_journal_volume
_citation_page_first
_citation_page_last
_citation_journal_id_ASTM
primary 'Physica Status Solidi A - Applications and Materials' 1976 34 475 481
PSSABA
loop_
_publ_author_name
'Ueso, Y.'
'Kobayashi, J.'
_cell_length_a 7.90065(8)
_cell_length_b 6.36890(9)
_cell_length_c 4.87254(12)
_cell_angle_alpha 90.
_cell_angle_beta 107.742
_cell_angle_gamma 90.
_cell_volume 233.52
_cell_formula_units_Z 2
_symmetry_space_group_name_H-M 'P 1 21/m 1'
_symmetry_Int_Tables_number 11
_refine_ls_R_factor_all 0.0115
loop_
_symmetry_equiv_pos_site_id
_symmetry_equiv_pos_as_xyz
1 'x, -y+1/2, z'
2 '-x, -y, -z'
3 '-x, y+1/2, -z'
4 'x, y, z'
loop_
_atom_type_symbol
_atom_type_oxidation_number
Cs1+ 1
P5+ 5
O2- -2
H1+ 1
loop_
_atom_site_label
_atom_site_type_symbol
_atom_site_symmetry_multiplicity
_atom_site_Wyckoff_symbol
_atom_site_fract_x
_atom_site_fract_y
_atom_site_fract_z
_atom_site_B_iso_or_equiv
_atom_site_occupancy
_atom_site_attached_hydrogens
Cs1 Cs1+ 2 e 0.2659(3) 0.25 0.0357(5) 1.04(3) 1. 0
P1 P5+ 2 e 0.2342(7) 0.75 0.5308(12) 0.74(14) 1. 0
O1 O2- 2 e 0.3935(22) 0.75 0.3900(35) 1.33(23) 1. 0
O2 O2- 2 e 0.3256(30) 0.75 0.8413(45) 3.86(35) 1. 0
O3 O2- 4 f 0.1232(22) 0.5524(29) 0.4155(36) 2.99(35) 1. 0
#End of TTdata_36300-ICSD