
#(C) 2017 by FIZ Karlsruhe - Leibniz Institute for Information Infrastructure.  All rights reserved.
data_36468-ICSD
_database_code_ICSD 36468
_audit_creation_date 1985-10-02
_audit_update_record 1988-07-26
_chemical_name_systematic
'Pentastrontium catena-mue-perantimonido-bis(diantimonidoindate(0))'
_chemical_formula_structural 'Sr5 In2 Sb6'
_chemical_formula_sum 'In2 Sb6 Sr5'
_chemical_name_structure_type Ca5Ga2As6
_exptl_crystal_density_diffrn 5.32
_publ_section_title

;
Perantimonidogallate und -indate: Zur Kenntnis von Ca5 Ga2 Sb6, Ca5 In2 Sb6
und Sr5 In2 Sb6
;
loop_
_citation_id
_citation_journal_full
_citation_year
_citation_journal_volume
_citation_page_first
_citation_page_last
_citation_journal_id_ASTM
primary

;
Zeitschrift fuer Naturforschung, Teil B. Anorganische Chemie, Organische
Chemie (33,1978-41,1986)
; 1985 40 5 8 ZNBAD2
loop_
_publ_author_name
'Cordier, G.'
'Schaefer, H.'
'Stelter, M.'
_cell_length_a 14.749(5)
_cell_length_b 12.696(4)
_cell_length_c 4.660(2)
_cell_angle_alpha 90.
_cell_angle_beta 90.
_cell_angle_gamma 90.
_cell_volume 872.6
_cell_formula_units_Z 2
_symmetry_space_group_name_H-M 'P b a m'
_symmetry_Int_Tables_number 55
_refine_ls_R_factor_all 0.065
loop_
_symmetry_equiv_pos_site_id
_symmetry_equiv_pos_as_xyz
1 'x+1/2, -y+1/2, z'
2 '-x+1/2, y+1/2, z'
3 'x, y, -z'
4 '-x, -y, -z'
5 '-x+1/2, y+1/2, -z'
6 'x+1/2, -y+1/2, -z'
7 '-x, -y, z'
8 'x, y, z'
loop_
_atom_type_symbol
_atom_type_oxidation_number
Sb0+ 0
Sr0+ 0
In0+ 0
loop_
_atom_site_label
_atom_site_type_symbol
_atom_site_symmetry_multiplicity
_atom_site_Wyckoff_symbol
_atom_site_fract_x
_atom_site_fract_y
_atom_site_fract_z
_atom_site_B_iso_or_equiv
_atom_site_occupancy
_atom_site_attached_hydrogens
Sb1 Sb0+ 4 g 0.4049(1) 0.8462(1) 0 . 1. 0
Sb2 Sb0+ 4 h 0.1764(1) 0.6628(1) 0.5 . 1. 0
Sb3 Sb0+ 4 g 0.4054(1) 0.4766(1) 0 . 1. 0
Sr1 Sr0+ 4 h 0.4827(1) 0.6742(2) 0.5 . 1. 0
Sr2 Sr0+ 4 h 0.2502(1) 0.4117(1) 0.5 . 1. 0
Sr3 Sr0+ 2 d 0 0.5 0.5 . 1. 0
In1 In0+ 4 g 0.2860(1) 0.6705(1) 0 . 1. 0
loop_
_atom_site_aniso_label
_atom_site_aniso_type_symbol
_atom_site_aniso_U_11
_atom_site_aniso_U_22
_atom_site_aniso_U_33
_atom_site_aniso_U_12
_atom_site_aniso_U_13
_atom_site_aniso_U_23
Sb1 Sb0+ 0.0178(6) 0.0107(6) 0.0111(6) -.0032(5) 0 0
Sb2 Sb0+ 0.0142(6) 0.0091(5) 0.0142(6) -.0017(5) 0 0
Sb3 Sb0+ 0.0139(6) 0.0124(6) 0.132(6) 0.0001(5) 0 0
Sr1 Sr0+ 0.0194(9) 0.0115(8) 0.0139(9) 0.0027(7) 0 0
Sr2 Sr0+ 0.0139(8) 0.0105(8) 0.0140(8) 0.0006(6) 0 0
Sr3 Sr0+ 0.0144(12) 0.0095(22) 0.0161(12) 0.0017(9) 0 0
In1 In0+ 0.0166(7) 0.0138(6) 0.0134(6) -.0015(5) 0 0
#End of TTdata_36468-ICSD