
#(C) 2017 by FIZ Karlsruhe - Leibniz Institute for Information Infrastructure.  All rights reserved.
data_36502-ICSD
_database_code_ICSD 36502
_audit_creation_date 1992-01-20
_audit_update_record 2007-08-01
_chemical_name_systematic 'Tribarium trinitridoferrate(III)'
_chemical_formula_structural 'Ba3 (Fe N3)'
_chemical_formula_sum 'Ba3 Fe1 N3'
_chemical_name_structure_type Ba3FeN3
_exptl_crystal_density_diffrn 5.43
_publ_section_title

;
Ba3 (Fe N3): Ein neues Nitridoferrat(III) mit (C O3)(2-)-isisteren Anoinen (Fe
N3)(6-)
;
loop_
_citation_id
_citation_journal_full
_citation_year
_citation_journal_volume
_citation_page_first
_citation_page_last
_citation_journal_id_ASTM
primary 'Zeitschrift fuer Kristallographie (1979-2010)' 1991 196 153 158 ZEKRDZ
loop_
_publ_author_name
'Hoehn, P.'
'Kniep, R.'
'Rabenau, A.'
_cell_length_a 8.014(1)
_cell_length_b 8.014(1)
_cell_length_c 5.608(1)
_cell_angle_alpha 90.
_cell_angle_beta 90.
_cell_angle_gamma 120.
_cell_volume 311.92
_cell_formula_units_Z 2
_symmetry_space_group_name_H-M 'P 63/m'
_symmetry_Int_Tables_number 176
_refine_ls_R_factor_all 0.041
loop_
_symmetry_equiv_pos_site_id
_symmetry_equiv_pos_as_xyz
1 '-x+y, -x, -z+1/2'
2 '-y, x-y, -z+1/2'
3 'x, y, -z+1/2'
4 'x-y, x, -z'
5 'y, -x+y, -z'
6 '-x, -y, -z'
7 'x-y, x, z+1/2'
8 'y, -x+y, z+1/2'
9 '-x, -y, z+1/2'
10 '-x+y, -x, z'
11 '-y, x-y, z'
12 'x, y, z'
loop_
_atom_type_symbol
_atom_type_oxidation_number
Ba2+ 2
Fe3+ 3
N3- -3
loop_
_atom_site_label
_atom_site_type_symbol
_atom_site_symmetry_multiplicity
_atom_site_Wyckoff_symbol
_atom_site_fract_x
_atom_site_fract_y
_atom_site_fract_z
_atom_site_B_iso_or_equiv
_atom_site_occupancy
_atom_site_attached_hydrogens
Ba1 Ba2+ 6 h 0.2714(1) 0.3583(1) 0.25 . 1. 0
Fe1 Fe3+ 2 d 0.6667 0.3333 0.25 . 1. 0
N1 N3- 6 h 0.4405(21) 0.1294(19) 0.25 . 1. 0
loop_
_atom_site_aniso_label
_atom_site_aniso_type_symbol
_atom_site_aniso_U_11
_atom_site_aniso_U_22
_atom_site_aniso_U_33
_atom_site_aniso_U_12
_atom_site_aniso_U_13
_atom_site_aniso_U_23
Ba1 Ba2+ 0.0100(4) 0.0119(4) 0.0090(4) 0.0075(3) 0 0
Fe1 Fe3+ 0.0054(8) 0.0054(8) 0.0082(14) 0.0027(4) 0 0
N1 N3- 0.0303(70) 0.0147(56) 0.0162(57) 0.0153(54) 0 0
#End of TTdata_36502-ICSD