
#(C) 2017 by FIZ Karlsruhe - Leibniz Institute for Information Infrastructure.  All rights reserved.
data_37121-ICSD
_database_code_ICSD 37121
_audit_creation_date 1983-12-31
_chemical_name_systematic 'Thallium octaselenopentatitanate(III)'
_chemical_formula_structural 'Tl Ti5 Se8'
_chemical_formula_sum 'Se8 Ti5 Tl1'
_chemical_name_structure_type Cr5CsS8
_exptl_crystal_density_diffrn 6.01
_publ_section_title

;
Channel Structures Based on Octahedral Frameworks: The Crystal Structure of Tl
Ti Se8, Tl V5 Se8, and Tl Cr5 Se8 and Its Relationships to Tl Cr3 S5,
Hollandites, and Psilomelane
;
loop_
_citation_id
_citation_journal_full
_citation_year
_citation_journal_volume
_citation_page_first
_citation_page_last
_citation_journal_id_ASTM
primary 'Journal of Solid State Chemistry' 1983 48 388 395 JSSCBI
loop_
_publ_author_name
'Klepp, K.O.'
'Boller, H.'
_cell_length_a 18.773(2)
_cell_length_b 3.5834(1)
_cell_length_c 9.1065(7)
_cell_angle_alpha 90.
_cell_angle_beta 104.13(1)
_cell_angle_gamma 90.
_cell_volume 594.07
_cell_formula_units_Z 2
_symmetry_space_group_name_H-M 'C 1 2/m 1'
_symmetry_Int_Tables_number 12
_refine_ls_R_factor_all 0.04
loop_
_symmetry_equiv_pos_site_id
_symmetry_equiv_pos_as_xyz
1 '-x, y, -z'
2 '-x, -y, -z'
3 'x, -y, z'
4 'x, y, z'
5 '-x+1/2, y+1/2, -z'
6 '-x+1/2, -y+1/2, -z'
7 'x+1/2, -y+1/2, z'
8 'x+1/2, y+1/2, z'
loop_
_atom_type_symbol
_atom_type_oxidation_number
Tl1+ 1
Ti3+ 3
Se2- -2
loop_
_atom_site_label
_atom_site_type_symbol
_atom_site_symmetry_multiplicity
_atom_site_Wyckoff_symbol
_atom_site_fract_x
_atom_site_fract_y
_atom_site_fract_z
_atom_site_B_iso_or_equiv
_atom_site_occupancy
_atom_site_attached_hydrogens
Tl1 Tl1+ 2 a 0 0 0 . 1. 0
Ti1 Ti3+ 2 d 0 0.5 0.5 . 1. 0
Ti2 Ti3+ 4 i 0.7919(1) 0 0.1510(1) . 1. 0
Ti3 Ti3+ 4 i 0.1540(1) 0 0.4939(1) . 1. 0
Se1 Se2- 4 i 0.6606 0 0.0007(1) . 1. 0
Se2 Se2- 4 i 0.2584 0 0.3382(1) . 1. 0
Se3 Se2- 4 i 0.586 0 0.3162(1) . 1. 0
Se4 Se2- 4 i 0.9268 0 0.3233(1) . 1. 0
loop_
_atom_site_aniso_label
_atom_site_aniso_type_symbol
_atom_site_aniso_U_11
_atom_site_aniso_U_22
_atom_site_aniso_U_33
_atom_site_aniso_U_12
_atom_site_aniso_U_13
_atom_site_aniso_U_23
Tl1 Tl1+ 0.0567(5) 0.0311(5) 0.0355(4) 0 0.0128(3) 0
Ti1 Ti3+ 0.0082(8) 0.0094(9) 0.0040(7) 0 0.0002(6) 0
Ti2 Ti3+ 0.0082(6) 0.0081(7) 0.0040(6) 0 0.0001(4) 0
Ti3 Ti3+ 0.0101(6) 0.0093(7) 0.0057(6) 0 0.0008(4) 0
Se1 Se2- 0.0094(4) 0.0091(5) 0.0055(4) 0 0.0007(3) 0
Se2 Se2- 0.0097(4) 0.0072(4) 0.0046(4) 0 0.0023(2) 0
Se3 Se2- 0.0100(4) 0.0101(5) 0.0057(4) 0 0.0012(3) 0
Se4 Se2- 0.0076(4) 0.0090(5) 0.0045(4) 0 0.0002(3) 0
#End of TTdata_37121-ICSD