
#(C) 2017 by FIZ Karlsruhe - Leibniz Institute for Information Infrastructure.  All rights reserved.
data_37251-ICSD
_database_code_ICSD 37251
_audit_creation_date 1980-01-01
_audit_update_record 2007-08-01
_chemical_name_systematic 'Dibismuth molybdenum oxide'
_chemical_formula_structural 'Bi2 Mo O6'
_chemical_formula_sum 'Bi2 Mo1 O6'
_chemical_name_structure_type Bi2TeO6
_chemical_name_mineral Koechlinite
_exptl_crystal_density_diffrn 8.26
_publ_section_title 'Die Kristallstruktur von Koechlinit, Bi2 Mo O6'
loop_
_citation_id
_citation_journal_full
_citation_year
_citation_journal_volume
_citation_page_first
_citation_page_last
_citation_journal_id_ASTM
primary 'Beitraege zur Mineralogie und Petrographie (-11,1965)' 1956 5 139 145
BMUPA4
loop_
_publ_author_name
'Zemann, J.'
_cell_length_a 5.50(2)
_cell_length_b 16.240(60)
_cell_length_c 5.49(2)
_cell_angle_alpha 90.
_cell_angle_beta 90.
_cell_angle_gamma 90.
_cell_volume 490.37
_cell_formula_units_Z 4
_symmetry_space_group_name_H-M 'C m c a'
_symmetry_Int_Tables_number 64
_refine_ls_R_factor_all 0.095
loop_
_symmetry_equiv_pos_site_id
_symmetry_equiv_pos_as_xyz
1 '-x, -y+1/2, z+1/2'
2 '-x, y+1/2, -z+1/2'
3 '-x, y, z'
4 '-x, -y, -z'
5 'x, y+1/2, -z+1/2'
6 'x, -y+1/2, z+1/2'
7 'x, -y, -z'
8 'x, y, z'
9 '-x+1/2, -y, z+1/2'
10 '-x+1/2, y, -z+1/2'
11 '-x+1/2, y+1/2, z'
12 '-x+1/2, -y+1/2, -z'
13 'x+1/2, y, -z+1/2'
14 'x+1/2, -y, z+1/2'
15 'x+1/2, -y+1/2, -z'
16 'x+1/2, y+1/2, z'
loop_
_atom_type_symbol
_atom_type_oxidation_number
Mo6+ 6
Bi3+ 3
O2- -2
loop_
_atom_site_label
_atom_site_type_symbol
_atom_site_symmetry_multiplicity
_atom_site_Wyckoff_symbol
_atom_site_fract_x
_atom_site_fract_y
_atom_site_fract_z
_atom_site_B_iso_or_equiv
_atom_site_occupancy
_atom_site_attached_hydrogens
Mo1 Mo6+ 4 a 0 0 0 4. 1. 0
Bi1 Bi3+ 8 f 0 0.172(1) 0.478(3) 4. 1. 0
O1 O2- 8 e 0.25 0.25 0.25 4. 1. 0
O2 O2- 8 e 0.25 0.48(1) 0.25 4. 1. 0
O3 O2- 8 f 0 0.10(1) 0.07(2) 4. 1. 0
#End of TTdata_37251-ICSD