
#(C) 2017 by FIZ Karlsruhe - Leibniz Institute for Information Infrastructure.  All rights reserved.
data_38302-ICSD
_database_code_ICSD 38302
_audit_creation_date 1980-01-01
_audit_update_record 1984-07-26
_chemical_name_systematic 'Sodium trichloromercurate(II)'
_chemical_formula_structural 'Na Hg Cl3'
_chemical_formula_sum 'Cl3 Hg1 Na1'
_exptl_crystal_density_diffrn 3.03
_publ_section_title 'Zur Kenntnis des Natrium-trichloromercurats(II)'
loop_
_citation_id
_citation_journal_full
_citation_year
_citation_journal_volume
_citation_page_first
_citation_page_last
_citation_journal_id_ASTM
primary

;
Zeitschrift fuer Naturforschung, Teil B. Anorganische Chemie, Organische
Chemie (2,1947-32,1977)
; 1954 9 82 82 ZENBAX
loop_
_publ_author_name
'Weiss, A.'
'Damm, K.'
_cell_length_a 9.48
_cell_length_b 4.16
_cell_length_c 18.35
_cell_angle_alpha 90.
_cell_angle_beta 90.
_cell_angle_gamma 90.
_cell_volume 723.67
_cell_formula_units_Z 4
_symmetry_space_group_name_H-M 'P n m a'
_symmetry_Int_Tables_number 62
loop_
_symmetry_equiv_pos_site_id
_symmetry_equiv_pos_as_xyz
1 'x+1/2, y, -z+1/2'
2 'x, -y+1/2, z'
3 '-x+1/2, y+1/2, z+1/2'
4 '-x, -y, -z'
5 '-x+1/2, -y, z+1/2'
6 '-x, y+1/2, -z'
7 'x+1/2, -y+1/2, -z+1/2'
8 'x, y, z'
loop_
_atom_type_symbol
_atom_type_oxidation_number
Hg2+ 2
Cl1- -1
Na1+ 1
loop_
_atom_site_label
_atom_site_type_symbol
_atom_site_symmetry_multiplicity
_atom_site_Wyckoff_symbol
_atom_site_fract_x
_atom_site_fract_y
_atom_site_fract_z
_atom_site_B_iso_or_equiv
_atom_site_occupancy
_atom_site_attached_hydrogens
Hg1 Hg2+ 4 c 0.071 0.25 0.095 . 1. 0
Cl1 Cl1- 4 c 0.652 0.25 0.528 . 1. 0
Cl2 Cl1- 4 c 0.942 0.25 0.199 . 1. 0
Cl3 Cl1- 4 c 0.711 0.25 0.815 . 1. 0
Na1 Na1+ 4 c 0.07 0.25 0.41 . 1. 0
#End of TTdata_38302-ICSD