
#(C) 2017 by FIZ Karlsruhe - Leibniz Institute for Information Infrastructure.  All rights reserved.
data_38316-ICSD
_database_code_ICSD 38316
_audit_creation_date 1984-12-31
_chemical_name_systematic 'Cobalt diphosphide - prepared at high pressure'
_chemical_formula_structural 'Co P2'
_chemical_formula_sum 'Co1 P2'
_chemical_name_structure_type FeAsS-CoSb2
_exptl_crystal_density_diffrn 5.11
_publ_section_title

;
Ambient pressure synthesis, properties, and structure refinements of V P4 and
Co P2
;
loop_
_citation_id
_citation_journal_full
_citation_year
_citation_journal_volume
_citation_page_first
_citation_page_last
_citation_journal_id_ASTM
primary 'Journal of Solid State Chemistry' 1984 52 320 326 JSSCBI
loop_
_publ_author_name
'Jeitschko, W.'
'Floerke, U.'
'Scholz, U.D.'
_cell_length_a 5.551(1)
_cell_length_b 5.549(2)
_cell_length_c 5.614(1)
_cell_angle_alpha 90.
_cell_angle_beta 114.71(2)
_cell_angle_gamma 90.
_cell_volume 157.09
_cell_formula_units_Z 4
_symmetry_space_group_name_H-M 'P 1 21/c 1'
_symmetry_Int_Tables_number 14
_refine_ls_R_factor_all 0.019
loop_
_symmetry_equiv_pos_site_id
_symmetry_equiv_pos_as_xyz
1 'x, -y+1/2, z+1/2'
2 '-x, -y, -z'
3 '-x, y+1/2, -z+1/2'
4 'x, y, z'
loop_
_atom_type_symbol
_atom_type_oxidation_number
Co0+ 0
P0+ 0
loop_
_atom_site_label
_atom_site_type_symbol
_atom_site_symmetry_multiplicity
_atom_site_Wyckoff_symbol
_atom_site_fract_x
_atom_site_fract_y
_atom_site_fract_z
_atom_site_B_iso_or_equiv
_atom_site_occupancy
_atom_site_attached_hydrogens
Co1 Co0+ 4 e 0.27079(3) 0.00124(5) 0.28585(4) 0.251(2) 1. 0
P1 P0+ 4 e 0.33830(7) 0.37213(8) 0.18196(7) 0.328(4) 1. 0
P2 P0+ 4 e 0.15899(7) 0.62666(8) 0.36478(7) 0.342(4) 1. 0
#End of TTdata_38316-ICSD