
#(C) 2017 by FIZ Karlsruhe - Leibniz Institute for Information Infrastructure.  All rights reserved.
data_38322-ICSD
_database_code_ICSD 38322
_audit_creation_date 1984-12-31
_chemical_name_systematic 'Barium tetraphosphide'
_chemical_formula_structural 'Ba3 P4'
_chemical_formula_sum 'Ba3 P4'
_chemical_name_structure_type Eu3As4
_exptl_crystal_density_diffrn 4.27
_publ_section_title

;
Eu3 P4, Sr3 P4 und Ba3 P4, Polyphosphide mit P4(6-)-Ketten in einer alpha-Th
Si2-Defektstruktur
;
loop_
_citation_id
_citation_journal_full
_citation_year
_citation_journal_volume
_citation_page_first
_citation_page_last
_citation_journal_id_ASTM
primary 'Zeitschrift fuer Anorganische und Allgemeine Chemie (1950) (DE)' 1984
510 61 71 ZAACAB
loop_
_publ_author_name
'von Schnering, H.G.'
'Wittmann, M.'
'Sommer, D.'
_cell_length_a 14.851(2)
_cell_length_b 18.236(3)
_cell_length_c 6.150(2)
_cell_angle_alpha 90.
_cell_angle_beta 90.
_cell_angle_gamma 90.
_cell_volume 1665.56
_cell_formula_units_Z 8
_symmetry_space_group_name_H-M 'F d d 2'
_symmetry_Int_Tables_number 43
_refine_ls_R_factor_all 0.029
loop_
_symmetry_equiv_pos_site_id
_symmetry_equiv_pos_as_xyz
1 'x+1/4, -y+1/4, z+1/4'
2 '-x+1/4, y+1/4, z+1/4'
3 '-x, -y, z'
4 'x, y, z'
5 'x+1/4, -y+3/4, z+3/4'
6 '-x+1/4, y+3/4, z+3/4'
7 '-x, -y+1/2, z+1/2'
8 'x, y+1/2, z+1/2'
9 'x+3/4, -y+1/4, z+3/4'
10 '-x+3/4, y+1/4, z+3/4'
11 '-x+1/2, -y, z+1/2'
12 'x+1/2, y, z+1/2'
13 'x+3/4, -y+3/4, z+1/4'
14 '-x+3/4, y+3/4, z+1/4'
15 '-x+1/2, -y+1/2, z'
16 'x+1/2, y+1/2, z'
loop_
_atom_type_symbol
_atom_type_oxidation_number
Ba2+ 2
P1- -1.5
loop_
_atom_site_label
_atom_site_type_symbol
_atom_site_symmetry_multiplicity
_atom_site_Wyckoff_symbol
_atom_site_fract_x
_atom_site_fract_y
_atom_site_fract_z
_atom_site_B_iso_or_equiv
_atom_site_occupancy
_atom_site_attached_hydrogens
Ba1 Ba2+ 8 a 0 0 0.25 . 1. 0
Ba2 Ba2+ 16 b 0.24532(4) 0.08126(3) 0.00578(29) . 1. 0
P1 P1- 16 b 0.3467(2) 0.9239(2) 0.0214(18) . 1. 0
P2 P1- 16 b 0.5782(2) 0.0024(2) 0.2465(21) . 1. 0
loop_
_atom_site_aniso_label
_atom_site_aniso_type_symbol
_atom_site_aniso_B_11
_atom_site_aniso_B_22
_atom_site_aniso_B_33
_atom_site_aniso_B_12
_atom_site_aniso_B_13
_atom_site_aniso_B_23
Ba1 Ba2+ 1.11(3) 1.90(4) 0.66(5) -.37(4) 0 0
Ba2 Ba2+ 0.92(2) 0.95(2) 1.09(4) -.02(2) -.13(6) 0.09(4)
P1 P1- 0.83(8) 1.09(9) 0.86(13) -.05(8) -.04(15) -.08(12)
P2 P1- 0.70(9) 1.04(8) 0.91(12) -.22(9) 0.07(12) -.08(12)
#End of TTdata_38322-ICSD