
#(C) 2017 by FIZ Karlsruhe - Leibniz Institute for Information Infrastructure.  All rights reserved.
data_391061-ICSD
_database_code_ICSD 391061
_audit_creation_date 1999-06-02
_audit_update_record 2010-08-01
_chemical_name_systematic 'Barium germanide (3/4) - beta'
_chemical_formula_structural 'Ba3 Ge4'
_chemical_formula_sum 'Ba3 Ge4'
_chemical_name_structure_type Ba3Ge4
_exptl_crystal_density_diffrn 5.22
_publ_section_title

;
Ba4 Ge4: Polymerization of Zintl anions in the solid and bond stretching
isomerism
;
loop_
_citation_id
_citation_journal_full
_citation_year
_citation_journal_volume
_citation_page_first
_citation_page_last
_citation_journal_id_ASTM
primary 'Angewandte Chemie. International Edition' 1998 37 3314 3318 ACIEF5
loop_
_publ_author_name
'Zuercher, F.'
'Nesper, R.'
_cell_length_a 8.621(2)
_cell_length_b 8.621(2)
_cell_length_c 12.031(3)
_cell_angle_alpha 90.
_cell_angle_beta 90.
_cell_angle_gamma 90.
_cell_volume 894.16
_cell_formula_units_Z 4
_symmetry_space_group_name_H-M 'P 42/m n m'
_symmetry_Int_Tables_number 136
_refine_ls_R_factor_all 0.0783
loop_
_symmetry_equiv_pos_site_id
_symmetry_equiv_pos_as_xyz
1 '-y+1/2, x+1/2, -z+1/2'
2 'y+1/2, -x+1/2, -z+1/2'
3 'y, x, -z'
4 '-y, -x, -z'
5 'y+1/2, -x+1/2, z+1/2'
6 '-y+1/2, x+1/2, z+1/2'
7 '-y, -x, z'
8 'y, x, z'
9 'x+1/2, -y+1/2, -z+1/2'
10 '-x+1/2, y+1/2, -z+1/2'
11 'x, y, -z'
12 '-x, -y, -z'
13 '-x+1/2, y+1/2, z+1/2'
14 'x+1/2, -y+1/2, z+1/2'
15 '-x, -y, z'
16 'x, y, z'
loop_
_atom_type_symbol
_atom_type_oxidation_number
Ba0+ 0
Ge0+ 0
loop_
_atom_site_label
_atom_site_type_symbol
_atom_site_symmetry_multiplicity
_atom_site_Wyckoff_symbol
_atom_site_fract_x
_atom_site_fract_y
_atom_site_fract_z
_atom_site_B_iso_or_equiv
_atom_site_occupancy
_atom_site_attached_hydrogens
Ba1 Ba0+ 4 g 0.8351(2) 0.1649(2) 0 . 1. 0
Ba2 Ba0+ 4 e 0 0 0.32999(19) . 1. 0
Ba3 Ba0+ 4 d 0 0.5 0.25 . 1. 0
Ge1 Ge0+ 8 i 0.4148(4) 0.1924(4) 0 . 1. 0
Ge2 Ge0+ 8 j 0.2000(3) 0.2000(3) 0.1473(3) . 1. 0
loop_
_atom_site_aniso_label
_atom_site_aniso_type_symbol
_atom_site_aniso_U_11
_atom_site_aniso_U_22
_atom_site_aniso_U_33
_atom_site_aniso_U_12
_atom_site_aniso_U_13
_atom_site_aniso_U_23
Ba1 Ba0+ 0.0577(12) 0.0577(12) 0.0697(18) 0.0033(12) 0 0
Ba2 Ba0+ 0.0509(11) 0.0509(11) 0.0485(16) 0.0013(11) 0 0
Ba3 Ba0+ 0.0548(12) 0.0548(12) 0.0547(16) 0 0 0
Ge1 Ge0+ 0.055(2) 0.065(2) 0.0485(17) -.0012(15) 0 0
Ge2 Ge0+ 0.0574(14) 0.0574(14) 0.075(2) 0.0029(16) 0.0111(12) 0.0111(12)
#End of TTdata_391061-ICSD