
#(C) 2017 by FIZ Karlsruhe - Leibniz Institute for Information Infrastructure.  All rights reserved.
data_391127-ICSD
_database_code_ICSD 391127
_audit_creation_date 2003-10-01
_chemical_name_systematic 'Zirconium rhodium indium (5/2/4)'
_chemical_formula_structural 'Zr5 Rh2 In4'
_chemical_formula_sum 'In4 Rh2 Zr5'
_chemical_name_structure_type Hf5Rh2In4
_exptl_crystal_density_diffrn 8.34
_publ_section_title

;
Synthesis and Crystal Structure of Zr5Rh2In4 and Hf5Rh2In4 - New Ternary
Indides with Lu5Ni2In4 Type Structure
;
loop_
_citation_id
_citation_journal_full
_citation_year
_citation_journal_volume
_citation_page_first
_citation_page_last
_citation_journal_id_ASTM
primary 'Zeitschrift fuer Naturforschung, B: Chemical Sciences' 2002 57 1353
1358 ZNBSEN
loop_
_publ_author_name
'Lukachuk, M.'
'Poettgen, R.'
_cell_length_a 17.398(2)
_cell_length_b 7.583(1)
_cell_length_c 3.3742(5)
_cell_angle_alpha 90.
_cell_angle_beta 90.
_cell_angle_gamma 90.
_cell_volume 445.15
_cell_formula_units_Z 2
_symmetry_space_group_name_H-M 'P b a m'
_symmetry_Int_Tables_number 55
_refine_ls_R_factor_all 0.0226
loop_
_symmetry_equiv_pos_site_id
_symmetry_equiv_pos_as_xyz
1 'x+1/2, -y+1/2, z'
2 '-x+1/2, y+1/2, z'
3 'x, y, -z'
4 '-x, -y, -z'
5 '-x+1/2, y+1/2, -z'
6 'x+1/2, -y+1/2, -z'
7 '-x, -y, z'
8 'x, y, z'
loop_
_atom_type_symbol
_atom_type_oxidation_number
Zr0+ 0
Rh0+ 0
In0+ 0
loop_
_atom_site_label
_atom_site_type_symbol
_atom_site_symmetry_multiplicity
_atom_site_Wyckoff_symbol
_atom_site_fract_x
_atom_site_fract_y
_atom_site_fract_z
_atom_site_B_iso_or_equiv
_atom_site_occupancy
_atom_site_attached_hydrogens
Zr1 Zr0+ 2 a 0 0 0 0.00702(11) 1. 0
Zr2 Zr0+ 4 g 0.22102(3) 0.25780(6) 0 0.00850(9) 1. 0
Zr3 Zr0+ 4 g 0.42044(2) 0.13609(6) 0 0.00732(9) 1. 0
Rh1 Rh0+ 4 h 0.306640(19) 0.04840(4) 0.5 0.00778(8) 1. 0
In1 In0+ 4 h 0.568086(18) 0.20067(4) 0.5 0.00826(8) 1. 0
In2 In0+ 4 h 0.849994(17) 0.06357(4) 0.5 0.00814(8) 1. 0
loop_
_atom_site_aniso_label
_atom_site_aniso_type_symbol
_atom_site_aniso_U_11
_atom_site_aniso_U_22
_atom_site_aniso_U_33
_atom_site_aniso_U_12
_atom_site_aniso_U_13
_atom_site_aniso_U_23
Zr1 Zr0+ 0.0070(2) 0.0063(2) 0.0078(3) 0.00052(17) 0 0
Zr2 Zr0+ 0.00947(18) 0.00954(18) 0.00648(18) 0.00006(14) 0 0
Zr3 Zr0+ 0.00769(17) 0.00700(17) 0.00728(19) 0.00053(12) 0 0
Rh1 Rh0+ 0.00607(13) 0.00639(13) 0.01087(16) -0.00029(10) 0 0
In1 In0+ 0.00754(13) 0.00699(13) 0.01026(15) 0.00090(9) 0 0
In2 In0+ 0.00703(13) 0.00694(13) 0.01044(15) -0.00039(9) 0 0
#End of TTdata_391127-ICSD