
#(C) 2017 by FIZ Karlsruhe - Leibniz Institute for Information Infrastructure.  All rights reserved.
data_391476-ICSD
_database_code_ICSD 391476
_audit_creation_date 2010-02-01
_chemical_name_systematic 'Zirconium platinum (5/3)'
_chemical_formula_structural 'Zr5 Pt3'
_chemical_formula_sum 'Pt3 Zr5'
_chemical_name_structure_type Mn5Si3
_exptl_crystal_density_diffrn 11.
_cell_measurement_temperature 273.
_publ_section_title

;
Structural and compositional investigations of Zr4 Pt2 O: A filled-cubic
Ti2Ni-type phase
;
loop_
_citation_id
_citation_journal_full
_citation_year
_citation_journal_volume
_citation_page_first
_citation_page_last
_citation_journal_id_ASTM
primary 'Journal of Solid State Chemistry' 2009 182 1708 1712 JSSCBI
loop_
_publ_author_name
'Gupta, S.'
'Sordelet, D.J.'
'Corbett, J.D.'
_cell_length_a 8.2099(14)
_cell_length_b 8.2099(14)
_cell_length_c 5.3852(19)
_cell_angle_alpha 90.
_cell_angle_beta 90.
_cell_angle_gamma 120.
_cell_volume 314.35
_cell_formula_units_Z 2
_symmetry_space_group_name_H-M 'P 63/m c m'
_symmetry_Int_Tables_number 193
_refine_ls_R_factor_all 0.0146
loop_
_symmetry_equiv_pos_site_id
_symmetry_equiv_pos_as_xyz
1 '-x, -x+y, -z+1/2'
2 'x-y, -y, -z+1/2'
3 'y, x, -z+1/2'
4 '-x+y, -x, -z+1/2'
5 '-y, x-y, -z+1/2'
6 'x, y, -z+1/2'
7 'x, x-y, z+1/2'
8 '-x+y, y, z+1/2'
9 '-y, -x, z+1/2'
10 'x-y, x, z+1/2'
11 'y, -x+y, z+1/2'
12 '-x, -y, z+1/2'
13 'x, x-y, -z'
14 '-x+y, y, -z'
15 '-y, -x, -z'
16 'x-y, x, -z'
17 'y, -x+y, -z'
18 '-x, -y, -z'
19 '-x, -x+y, z'
20 'x-y, -y, z'
21 'y, x, z'
22 '-x+y, -x, z'
23 '-y, x-y, z'
24 'x, y, z'
loop_
_atom_type_symbol
_atom_type_oxidation_number
Pt0+ 0
Zr0+ 0
loop_
_atom_site_label
_atom_site_type_symbol
_atom_site_symmetry_multiplicity
_atom_site_Wyckoff_symbol
_atom_site_fract_x
_atom_site_fract_y
_atom_site_fract_z
_atom_site_B_iso_or_equiv
_atom_site_occupancy
_atom_site_attached_hydrogens
Pt1 Pt0+ 6 g 0.39738(4) 0. 0.25 0.00973(16) 1 0
Zr1 Zr0+ 6 g 0.24514(11) 0.24514(11) 0.25 0.0080(2) 1 0
Zr2 Zr0+ 4 d 0.6667 0.3333 0. 0.0095(2) 1 0
loop_
_atom_site_aniso_label
_atom_site_aniso_type_symbol
_atom_site_aniso_U_11
_atom_site_aniso_U_22
_atom_site_aniso_U_33
_atom_site_aniso_U_12
_atom_site_aniso_U_13
_atom_site_aniso_U_23
Pt1 Pt0+ 0.00758(19) 0.0066(2) 0.0147(2) 0.00328(11) 0. 0.
Zr1 Zr0+ 0.0075(3) 0.0075(3) 0.0090(4) 0.0037(4) 0. 0.
Zr2 Zr0+ 0.0108(3) 0.0108(3) 0.0070(5) 0.00539(17) 0. 0.
#End of TTdata_391476-ICSD