
#(C) 2017 by FIZ Karlsruhe - Leibniz Institute for Information Infrastructure.  All rights reserved.
data_391408-ICSD
_database_code_ICSD 391408
_audit_creation_date 2009-02-01
_chemical_name_systematic 'Copper tetraborate'
_chemical_formula_structural 'Cu (B4 O7)'
_chemical_formula_sum 'B4 Cu1 O7'
_chemical_name_structure_type ZnB4O7
_exptl_crystal_density_diffrn 4.06
_cell_measurement_temperature 293.
_publ_section_title

;
High-pressure syntheses and characterization of the transition metal borates
beta-MB4O7 (M = Mn2+, Ni2+, Cu2+)
;
loop_
_citation_id
_citation_journal_full
_citation_year
_citation_journal_volume
_citation_page_first
_citation_page_last
_citation_journal_id_ASTM
primary 'Solid State Sciences' 2008 10 168 178 SSSCFJ
loop_
_publ_author_name
'Knyrim, J.S.'
'Friedrichs, J.'
'Neumair, S.'
'Roessner, F.'
'Floredo, Y.'
'Jakob, S.'
'Johrendt, D.'
'Glaum, R.'
'Huppertz, H.'
_cell_length_a 10.820(2)
_cell_length_b 6.4627(13)
_cell_length_c 5.1200(10)
_cell_angle_alpha 90.
_cell_angle_beta 90.
_cell_angle_gamma 90.
_cell_volume 358.02
_cell_formula_units_Z 4
_symmetry_space_group_name_H-M 'C m c m'
_symmetry_Int_Tables_number 63
_refine_ls_R_factor_all 0.0346
loop_
_symmetry_equiv_pos_site_id
_symmetry_equiv_pos_as_xyz
1 '-x, y, -z+1/2'
2 '-x, -y, z+1/2'
3 '-x, y, z'
4 '-x, -y, -z'
5 'x, -y, z+1/2'
6 'x, y, -z+1/2'
7 'x, -y, -z'
8 'x, y, z'
9 '-x+1/2, y+1/2, -z+1/2'
10 '-x+1/2, -y+1/2, z+1/2'
11 '-x+1/2, y+1/2, z'
12 '-x+1/2, -y+1/2, -z'
13 'x+1/2, -y+1/2, z+1/2'
14 'x+1/2, y+1/2, -z+1/2'
15 'x+1/2, -y+1/2, -z'
16 'x+1/2, y+1/2, z'
loop_
_atom_type_symbol
_atom_type_oxidation_number
Cu2+ 2
O2- -2
B3+ 3
loop_
_atom_site_label
_atom_site_type_symbol
_atom_site_symmetry_multiplicity
_atom_site_Wyckoff_symbol
_atom_site_fract_x
_atom_site_fract_y
_atom_site_fract_z
_atom_site_B_iso_or_equiv
_atom_site_occupancy
_atom_site_attached_hydrogens
Cu1 Cu2+ 4 c 0. 0.27374(6) 0.25 0.00612(10) 1 0
O1 O2- 4 c 0. -0.0746(3) 0.25 0.0047(3) 1 0
O2 O2- 8 g -0.22050(13) -0.0219(2) 0.25 0.0048(2) 1 0
O3 O2- 16 h 0.12673(9) 0.31610(15) -0.0198(2) 0.00539(16) 1 0
B1 B3+ 8 e 0.20317(19) 0.5 0. 0.0055(3) 1 0
B2 B3+ 8 g 0.11467(19) 0.1866(3) -0.25 0.0052(3) 1 0
loop_
_atom_site_aniso_label
_atom_site_aniso_type_symbol
_atom_site_aniso_U_11
_atom_site_aniso_U_22
_atom_site_aniso_U_33
_atom_site_aniso_U_12
_atom_site_aniso_U_13
_atom_site_aniso_U_23
Cu1 Cu2+ 0.00530(14) 0.00765(15) 0.00540(16) 0. 0. 0.
O1 O2- 0.0043(6) 0.0037(6) 0.0059(7) 0. 0. 0.
O2 O2- 0.0052(4) 0.0043(4) 0.0049(5) 0.0006(4) 0. 0.
O3 O2- 0.0059(3) 0.0043(3) 0.0059(4) -0.0015(2) 0.0007(3) -0.0011(3)
B1 B3+ 0.0059(7) 0.0045(6) 0.0061(8) 0. 0. -0.0003(6)
B2 B3+ 0.0044(6) 0.0051(6) 0.0061(8) 0.0000(5) 0. 0.
#End of TTdata_391408-ICSD