
#(C) 2017 by FIZ Karlsruhe - Leibniz Institute for Information Infrastructure.  All rights reserved.
data_39429-ICSD
_database_code_ICSD 39429
_audit_creation_date 1992-01-20
_audit_update_record 2010-02-01
_chemical_name_systematic 'Titanium(III) chloride - IH, LT'
_chemical_formula_structural 'Ti Cl3'
_chemical_formula_sum 'Cl3 Ti1'
_exptl_crystal_density_diffrn 2.74
_cell_measurement_temperature 160.
_publ_section_title
'X-ray diffraction study of phase transition in alpha-Ti Cl3'
loop_
_citation_id
_citation_journal_full
_citation_year
_citation_journal_volume
_citation_page_first
_citation_page_last
_citation_journal_id_ASTM
primary 'Zhurnal Neorganicheskoi Khimii' 1991 36 1117 1122 ZNOKAQ
loop_
_publ_author_name
'Troyanov, S.I.'
'Snigireva, E.M.'
'Rybakov, V.B.'
_cell_length_a 6.051(2)
_cell_length_b 10.569(3)
_cell_length_c 17.559(5)
_cell_angle_alpha 90.
_cell_angle_beta 91.21(4)
_cell_angle_gamma 90.
_cell_volume 1122.7
_cell_formula_units_Z 12
_symmetry_space_group_name_H-M 'C 1 2/m 1'
_symmetry_Int_Tables_number 12
_refine_ls_R_factor_all 0.105
loop_
_symmetry_equiv_pos_site_id
_symmetry_equiv_pos_as_xyz
1 '-x, y, -z'
2 '-x, -y, -z'
3 'x, -y, z'
4 'x, y, z'
5 '-x+1/2, y+1/2, -z'
6 '-x+1/2, -y+1/2, -z'
7 'x+1/2, -y+1/2, z'
8 'x+1/2, y+1/2, z'
loop_
_atom_type_symbol
_atom_type_oxidation_number
Ti3+ 3
Cl1- -1
loop_
_atom_site_label
_atom_site_type_symbol
_atom_site_symmetry_multiplicity
_atom_site_Wyckoff_symbol
_atom_site_fract_x
_atom_site_fract_y
_atom_site_fract_z
_atom_site_B_iso_or_equiv
_atom_site_occupancy
_atom_site_attached_hydrogens
Ti1 Ti3+ 8 j 0.822(3) -.158(1) 0.334(1) 0.8(2) 1. 0
Ti2 Ti3+ 4 g 0.5 -.159(1) 0 1.2(2) 1. 0
Cl1 Cl1- 4 i 0.964(5) 0 0.257(1) 1.0(3) 1. 0
Cl2 Cl1- 4 i 0.661(5) 0 0.412(1) 1.2(4) 1. 0
Cl3 Cl1- 4 i 0.361(5) 0 0.092(1) 0.9(3) 1. 0
Cl4 Cl1- 8 j 0.822(3) -.168(2) 0.072(1) 1.1(3) 1. 0
Cl5 Cl1- 8 j 0.139(3) -.187(2) 0.416(1) 1.0(3) 1. 0
Cl6 Cl1- 8 j 0.490(3) -.171(2) 0.257(1) 0.9(3) 1. 0
#End of TTdata_39429-ICSD