
data_39441-ICSD
_database_code_ICSD 39441
_audit_creation_date 1992-01-20
_audit_update_record 2010-02-01
_chemical_name_systematic 'Bromine(III) fluoride'
_chemical_formula_structural 'Br F3'
_chemical_formula_sum 'Br1 F3'
_chemical_name_structure_type BrF3
_exptl_crystal_density_diffrn 3.54
_cell_measurement_temperature 143.
_cell_length_a 5.315(1)
_cell_length_b 7.305(1)
_cell_length_c 6.624(1)
_cell_angle_alpha 90.
_cell_angle_beta 90.
_cell_angle_gamma 90.
_cell_volume 257.18
_cell_formula_units_Z 4
_symmetry_space_group_name_H-M 'C m c 21'
_symmetry_Int_Tables_number 36
_refine_ls_R_factor_all 0.036
loop_
_symmetry_equiv_pos_site_id
_symmetry_equiv_pos_as_xyz
1 'x, -y, z+1/2'
2 '-x, -y, z+1/2'
3 '-x, y, z'
4 'x, y, z'
5 'x+1/2, -y+1/2, z+1/2'
6 '-x+1/2, -y+1/2, z+1/2'
7 '-x+1/2, y+1/2, z'
8 'x+1/2, y+1/2, z'
loop_
_atom_type_symbol
_atom_type_oxidation_number
Br3+ 3
F1- -1
loop_
_atom_site_label
_atom_site_type_symbol
_atom_site_symmetry_multiplicity
_atom_site_Wyckoff_symbol
_atom_site_fract_x
_atom_site_fract_y
_atom_site_fract_z
_atom_site_B_iso_or_equiv
_atom_site_occupancy
_atom_site_attached_hydrogens
Br1 Br3+ 4 a 0 0.3415(1) 0.072 . 1. 0
F1 F1- 4 a 0 0.2412(12) 0.3052(17) . 1. 0
F2 F1- 4 a 0 0.1177(9) -.0320(19) . 1. 0
F3 F1- 4 a 0 0.5642(10) 0.2168(19) . 1. 0
loop_
_atom_site_aniso_label
_atom_site_aniso_type_symbol
_atom_site_aniso_U_11
_atom_site_aniso_U_22
_atom_site_aniso_U_33
_atom_site_aniso_U_12
_atom_site_aniso_U_13
_atom_site_aniso_U_23
Br1 Br3+ 0.0012(1) 0.0012(1) 0.0013(1) 0 0 0.0(1)
F1 F1- 0.0026(4) 0.0029(4) 0.0016(4) 0 0 0.0009(3)
F2 F1- 0.0031(5) 0.0010(2) 0.0036(6) 0 0 -.0003(3)
F3 F1- 0.0031(5) 0.0018(3) 0.0037(6) 0 0 -.0009(4)
