
#(C) 2017 by FIZ Karlsruhe - Leibniz Institute for Information Infrastructure.  All rights reserved.
data_39595-ICSD
_database_code_ICSD 39595
_audit_creation_date 1993-08-22
_chemical_name_systematic 'Tetraniobium pentaoxide'
_chemical_formula_structural 'Nb4 O5'
_chemical_formula_sum 'Nb4 O5'
_exptl_crystal_density_diffrn 7.04
_publ_section_title 'Crystal structure of a new niobium oxide Nb4O5.'
loop_
_citation_id
_citation_journal_full
_citation_year
_citation_journal_volume
_citation_page_first
_citation_page_last
_citation_journal_id_ASTM
primary Kristallografiya 1992 37 589 597 KRISAJ
loop_
_publ_author_name
'Arakcheeva, A.V.'
_cell_length_a 6.651(1)
_cell_length_b 6.651(1)
_cell_length_c 4.814(1)
_cell_angle_alpha 90.
_cell_angle_beta 90.
_cell_angle_gamma 90.
_cell_volume 212.95
_cell_formula_units_Z 2
_symmetry_space_group_name_H-M 'P 42/n m c Z'
_symmetry_Int_Tables_number 137
_refine_ls_R_factor_all 0.025
loop_
_symmetry_equiv_pos_site_id
_symmetry_equiv_pos_as_xyz
1 'y+1/2, x+1/2, -z+1/2'
2 '-y, x+1/2, -z+1/2'
3 'y+1/2, -x, -z+1/2'
4 '-y, -x, -z+1/2'
5 'x+1/2, y+1/2, -z'
6 '-x, y+1/2, -z'
7 'x+1/2, -y, -z'
8 '-x, -y, -z'
9 '-y+1/2, -x+1/2, z+1/2'
10 'y, -x+1/2, z+1/2'
11 '-y+1/2, x, z+1/2'
12 'y, x, z+1/2'
13 '-x+1/2, -y+1/2, z'
14 'x, -y+1/2, z'
15 '-x+1/2, y, z'
16 'x, y, z'
loop_
_atom_type_symbol
_atom_type_oxidation_number
Nb2+ 2.5
O2- -2
loop_
_atom_site_label
_atom_site_type_symbol
_atom_site_symmetry_multiplicity
_atom_site_Wyckoff_symbol
_atom_site_fract_x
_atom_site_fract_y
_atom_site_fract_z
_atom_site_B_iso_or_equiv
_atom_site_occupancy
_atom_site_attached_hydrogens
Nb1 Nb2+ 8 g 0.25 0.04505(3) 0.45548(1) 0.40(1) 1. 0
O1 O2- 2 a 0.25 0.75 0.25 0.62(2) 1. 0
O2 O2- 8 f -.0367(2) 0.0367(2) 0.25 0.22(2) 1. 0
#End of TTdata_39595-ICSD