
#(C) 2017 by FIZ Karlsruhe - Leibniz Institute for Information Infrastructure.  All rights reserved.
data_39823-ICSD
_database_code_ICSD 39823
_audit_creation_date 1995-01-10
_chemical_name_systematic 'Trirubidium diantimony bromide'
_chemical_formula_structural 'Rb3 Sb2 Br9'
_chemical_formula_sum 'Br9 Rb3 Sb2'
_chemical_name_structure_type Cs3Bi2Br9
_exptl_crystal_density_diffrn 3.82
_publ_section_title

;
Phase equilibria in RbBr-Sb(Bi)Br3 systems and crystal structures of compounds
of the type A3B2C9 (A(I)-Rb,Cs;B(V)-Sb,Bi; C(VII)-Br,I)
;
loop_
_citation_id
_citation_journal_full
_citation_year
_citation_journal_volume
_citation_page_first
_citation_page_last
_citation_journal_id_ASTM
primary 'Izvestiya Akademii Nauk SSSR, Neorganicheskie Materialy' 1993 29 410
413 IVNMAW
loop_
_publ_author_name
'Kun, S.V.'
'Lazarev, V.B.'
'Peresh, E.Yu.'
'Kun, A.V.'
'Voroshilov, Yu.V.'
_cell_length_a 7.939(8)
_cell_length_b 7.939(8)
_cell_length_c 9.718(6)
_cell_angle_alpha 90.
_cell_angle_beta 90.
_cell_angle_gamma 120.
_cell_volume 530.44
_cell_formula_units_Z 1
_symmetry_space_group_name_H-M 'P -3 m 1'
_symmetry_Int_Tables_number 164
_refine_ls_R_factor_all 0.18
loop_
_symmetry_equiv_pos_site_id
_symmetry_equiv_pos_as_xyz
1 'x-y, -y, -z'
2 '-x, -x+y, -z'
3 'y, x, -z'
4 'x-y, x, -z'
5 'y, -x+y, -z'
6 '-x, -y, -z'
7 '-x+y, y, z'
8 'x, x-y, z'
9 '-y, -x, z'
10 '-x+y, -x, z'
11 '-y, x-y, z'
12 'x, y, z'
loop_
_atom_type_symbol
_atom_type_oxidation_number
Rb1+ 1
Sb3+ 3
Br1- -1
loop_
_atom_site_label
_atom_site_type_symbol
_atom_site_symmetry_multiplicity
_atom_site_Wyckoff_symbol
_atom_site_fract_x
_atom_site_fract_y
_atom_site_fract_z
_atom_site_B_iso_or_equiv
_atom_site_occupancy
_atom_site_attached_hydrogens
Rb1 Rb1+ 1 a 0 0 0 0.02 1. 0
Rb2 Rb1+ 2 d 0.6667 0.3333 0.672 0.23 1. 0
Sb1 Sb3+ 2 d 0.6667 0.3333 0.185 3.59 1. 0
Br1 Br1- 3 e 0.5 0.5 0 4.12 1. 0
Br2 Br1- 6 i 0.178 0.822 0.658 2.64 1. 0
#End of TTdata_39823-ICSD