
#(C) 2017 by FIZ Karlsruhe - Leibniz Institute for Information Infrastructure.  All rights reserved.
data_39824-ICSD
_database_code_ICSD 39824
_audit_creation_date 1995-01-10
_audit_update_record 2003-04-01
_chemical_name_systematic 'Tricesium diantimony bromide'
_chemical_formula_structural 'Cs3 Sb2 Br9'
_chemical_formula_sum 'Br9 Cs3 Sb2'
_chemical_name_structure_type Cs3Bi2Br9
_exptl_crystal_density_diffrn 4.27
_publ_section_title

;
Phase equilibria in Rb Br - Sb (Bi) Br3 systems and crystal structures of
compounds of the type A3 B2 C9 (AI-Rb, Cs; BV-Sb, Bi; CVII-Br, I)
;
loop_
_citation_id
_citation_journal_full
_citation_year
_citation_journal_volume
_citation_page_first
_citation_page_last
_citation_journal_id_ASTM
primary 'Izvestiya Akademii Nauk SSSR, Neorganicheskie Materialy' 1993 29 410
413 IVNMAW
loop_
_publ_author_name
'Kun, S.V.'
'Lazarev, V.B.'
'Peresh, E.Yu.'
'Kun, A.V.'
'Voroshilov, Yu.V.'
_cell_length_a 7.930(1)
_cell_length_b 7.930(1)
_cell_length_c 9.716(9)
_cell_angle_alpha 90.
_cell_angle_beta 90.
_cell_angle_gamma 120.
_cell_volume 529.13
_cell_formula_units_Z 1
_symmetry_space_group_name_H-M 'P -3 m 1'
_symmetry_Int_Tables_number 164
_refine_ls_R_factor_all 0.141
loop_
_symmetry_equiv_pos_site_id
_symmetry_equiv_pos_as_xyz
1 'x-y, -y, -z'
2 '-x, -x+y, -z'
3 'y, x, -z'
4 'x-y, x, -z'
5 'y, -x+y, -z'
6 '-x, -y, -z'
7 '-x+y, y, z'
8 'x, x-y, z'
9 '-y, -x, z'
10 '-x+y, -x, z'
11 '-y, x-y, z'
12 'x, y, z'
loop_
_atom_type_symbol
_atom_type_oxidation_number
Cs1+ 1
Sb3+ 3
Br1- -1
loop_
_atom_site_label
_atom_site_type_symbol
_atom_site_symmetry_multiplicity
_atom_site_Wyckoff_symbol
_atom_site_fract_x
_atom_site_fract_y
_atom_site_fract_z
_atom_site_B_iso_or_equiv
_atom_site_occupancy
_atom_site_attached_hydrogens
Cs1 Cs1+ 1 a 0 0 0 0.11 1. 0
Cs2 Cs1+ 2 d 0.6667 0.3333 0.685 0.36 1. 0
Sb1 Sb3+ 2 d 0.6667 0.3333 0.18 2.19 1. 0
Br1 Br1- 3 e 0.5 0.5 0 3.27 1. 0
Br2 Br1- 6 i 0.163 0.837 0.655 1.45 1. 0
#End of TTdata_39824-ICSD