
#(C) 2017 by FIZ Karlsruhe - Leibniz Institute for Information Infrastructure.  All rights reserved.
data_400581-ICSD
_database_code_ICSD 400581
_audit_creation_date 1995-01-10
_chemical_name_systematic 'Dicopper(I) titanium telluride'
_chemical_formula_structural 'Cu2 Ti Te3'
_chemical_formula_sum 'Cu2 Te3 Ti1'
_chemical_name_structure_type Cu2TiTe3
_exptl_crystal_density_diffrn 6.61
_publ_section_title
'Crystal structure of dicopper titanium tritelluride, Cu2TiTe3'
loop_
_citation_id
_citation_journal_full
_citation_year
_citation_journal_volume
_citation_page_first
_citation_page_last
_citation_journal_id_ASTM
primary 'Zeitschrift fuer Kristallographie (1979-2010)' 1994 209 687 687 ZEKRDZ
loop_
_publ_author_name
'Bensch, W.'
'Duerichen, P.'
_cell_length_a 19.866(5)
_cell_length_b 3.987(1)
_cell_length_c 7.109(3)
_cell_angle_alpha 90.
_cell_angle_beta 95.86(3)
_cell_angle_gamma 90.
_cell_volume 560.13
_cell_formula_units_Z 4
_symmetry_space_group_name_H-M 'C 1 2/m 1'
_symmetry_Int_Tables_number 12
_refine_ls_R_factor_all 0.026
loop_
_symmetry_equiv_pos_site_id
_symmetry_equiv_pos_as_xyz
1 '-x, y, -z'
2 '-x, -y, -z'
3 'x, -y, z'
4 'x, y, z'
5 '-x+1/2, y+1/2, -z'
6 '-x+1/2, -y+1/2, -z'
7 'x+1/2, -y+1/2, z'
8 'x+1/2, y+1/2, z'
loop_
_atom_type_symbol
_atom_type_oxidation_number
Cu1+ 1
Ti4+ 4
Te2- -2
loop_
_atom_site_label
_atom_site_type_symbol
_atom_site_symmetry_multiplicity
_atom_site_Wyckoff_symbol
_atom_site_fract_x
_atom_site_fract_y
_atom_site_fract_z
_atom_site_B_iso_or_equiv
_atom_site_occupancy
_atom_site_attached_hydrogens
Cu1 Cu1+ 4 i 0.28715(5) 0 0.5709(2) . 1. 0
Cu2 Cu1+ 4 i 0.04457(5) 0 0.1544(1) . 1. 0
Ti1 Ti4+ 4 i 0.35328(7) 0 -.0604(2) . 1. 0
Te1 Te2- 4 i 0.24744(2) 0 0.20919(7) . 1. 0
Te2 Te2- 4 i 0.08826(3) 0 0.82848(7) . 1. 0
Te3 Te2- 4 i 0.41811(3) 0 0.63051(7) . 1. 0
loop_
_atom_site_aniso_label
_atom_site_aniso_type_symbol
_atom_site_aniso_U_11
_atom_site_aniso_U_22
_atom_site_aniso_U_33
_atom_site_aniso_U_12
_atom_site_aniso_U_13
_atom_site_aniso_U_23
Cu1 Cu1+ 0.0184(6) 0.0137(6) 0.0116(6) 0 0.0006(4) 0
Cu2 Cu1+ 0.0151(6) 0.0159(7) 0.0124(6) 0 0.0037(4) 0
Ti1 Ti4+ 0.0100(7) 0.0101(9) 0.0078(7) 0 0.0029(5) 0
Te1 Te2- 0.0103(4) 0.0087(4) 0.0071(4) 0 0.0031(2) 0
Te2 Te2- 0.0118(4) 0.0102(4) 0.0086(4) 0 0.0020(2) 0
Te3 Te2- 0.0133(4) 0.0119(4) 0.0092(4) 0 0.0041(2) 0
#End of TTdata_400581-ICSD