
#(C) 2017 by FIZ Karlsruhe - Leibniz Institute for Information Infrastructure.  All rights reserved.
data_401730-ICSD
_database_code_ICSD 401730
_audit_creation_date 2005-10-01
_audit_update_record 2008-02-01
_chemical_name_systematic 'Titanium indium (2/5)'
_chemical_formula_structural 'Ti2 In5'
_chemical_formula_sum 'In5 Ti2'
_chemical_name_structure_type Hg5Mn2
_exptl_crystal_density_diffrn 7.42
_publ_section_title 'Crystal structure and properties of Ti2 In5'
loop_
_citation_id
_citation_journal_full
_citation_year
_citation_journal_volume
_citation_page_first
_citation_page_last
_citation_journal_id_ASTM
primary 'Zeitschrift fuer Naturforschung, B: Chemical Sciences' 1995 50 1505
1509 ZNBSEN
loop_
_publ_author_name
'Poettgen, R.'
_cell_length_a 10.0035(5)
_cell_length_b 10.0035(5)
_cell_length_c 2.9977(2)
_cell_angle_alpha 90.
_cell_angle_beta 90.
_cell_angle_gamma 90.
_cell_volume 299.98
_cell_formula_units_Z 2
_symmetry_space_group_name_H-M 'P 4/m b m'
_symmetry_Int_Tables_number 127
_refine_ls_R_factor_all 0.0194
loop_
_symmetry_equiv_pos_site_id
_symmetry_equiv_pos_as_xyz
1 'y+1/2, x+1/2, -z'
2 '-y+1/2, -x+1/2, -z'
3 '-y, x, -z'
4 'y, -x, -z'
5 'x+1/2, -y+1/2, -z'
6 '-x+1/2, y+1/2, -z'
7 'x, y, -z'
8 '-x, -y, -z'
9 '-y+1/2, -x+1/2, z'
10 'y+1/2, x+1/2, z'
11 'y, -x, z'
12 '-y, x, z'
13 '-x+1/2, y+1/2, z'
14 'x+1/2, -y+1/2, z'
15 '-x, -y, z'
16 'x, y, z'
loop_
_atom_type_symbol
_atom_type_oxidation_number
Ti0+ 0
In0+ 0
loop_
_atom_site_label
_atom_site_type_symbol
_atom_site_symmetry_multiplicity
_atom_site_Wyckoff_symbol
_atom_site_fract_x
_atom_site_fract_y
_atom_site_fract_z
_atom_site_B_iso_or_equiv
_atom_site_occupancy
_atom_site_attached_hydrogens
Ti1 Ti0+ 4 h 0.17917(5) 0.67917(5) 0.5 0.0070(2) 1 0
In1 In0+ 2 d 0. 0.5 0. 0.00856(12) 1 0
In2 In0+ 8 i 0.06336(2) 0.20674(2) 0. 0.00922(10) 1 0
loop_
_atom_site_aniso_label
_atom_site_aniso_type_symbol
_atom_site_aniso_U_11
_atom_site_aniso_U_22
_atom_site_aniso_U_33
_atom_site_aniso_U_12
_atom_site_aniso_U_13
_atom_site_aniso_U_23
Ti1 Ti0+ 0.0069(2) 0.0069(2) 0.0072(3) -0.0007(2) 0. 0.
In1 In0+ 0.00877(15) 0.00877(15) 0.0081(2) -0.00205(14) 0. 0.
In2 In0+ 0.00784(13) 0.01127(14) 0.00856(14) 0.00164(7) 0. 0.
#End of TTdata_401730-ICSD