
#(C) 2017 by FIZ Karlsruhe - Leibniz Institute for Information Infrastructure.  All rights reserved.
data_402081-ICSD
_database_code_ICSD 402081
_audit_creation_date 1996-04-22
_audit_update_record 2012-02-01
_chemical_name_systematic 'Trisodium catena-di-mue-phosphidoaluminate'
_chemical_formula_structural 'Na3 (Al P2)'
_chemical_formula_sum 'Al1 Na3 P2'
_chemical_name_structure_type Na3AlAs2
_exptl_crystal_density_diffrn 1.93
_publ_section_title
'Crystal structure of trisodium catena-di-mue-phosphidoaluminate, Na3 Al P2'
loop_
_citation_id
_citation_journal_full
_citation_year
_citation_journal_volume
_citation_page_first
_citation_page_last
_citation_journal_id_ASTM
primary 'Zeitschrift fuer Kristallographie (1979-2010)' 1995 210 777 777 ZEKRDZ
loop_
_publ_author_name
'Somer, M.'
'Carrillo Cabrera, W.'
'Peters, E.M.'
'Peters, K.'
'von Schnering, H.G.'
_cell_length_a 6.773(1)
_cell_length_b 13.194(2)
_cell_length_c 6.077(1)
_cell_angle_alpha 90.
_cell_angle_beta 90.
_cell_angle_gamma 90.
_cell_volume 543.06
_cell_formula_units_Z 4
_symmetry_space_group_name_H-M 'I b a m'
_symmetry_Int_Tables_number 72
_refine_ls_R_factor_all 0.021
loop_
_symmetry_equiv_pos_site_id
_symmetry_equiv_pos_as_xyz
1 '-x, y, z+1/2'
2 'x, -y, z+1/2'
3 'x, y, -z'
4 '-x, -y, -z'
5 'x, -y, -z+1/2'
6 '-x, y, -z+1/2'
7 '-x, -y, z'
8 'x, y, z'
9 '-x+1/2, y+1/2, z'
10 'x+1/2, -y+1/2, z'
11 'x+1/2, y+1/2, -z+1/2'
12 '-x+1/2, -y+1/2, -z+1/2'
13 'x+1/2, -y+1/2, -z'
14 '-x+1/2, y+1/2, -z'
15 '-x+1/2, -y+1/2, z+1/2'
16 'x+1/2, y+1/2, z+1/2'
loop_
_atom_type_symbol
_atom_type_oxidation_number
P3- -3
Al3+ 3
Na1+ 1
loop_
_atom_site_label
_atom_site_type_symbol
_atom_site_symmetry_multiplicity
_atom_site_Wyckoff_symbol
_atom_site_fract_x
_atom_site_fract_y
_atom_site_fract_z
_atom_site_B_iso_or_equiv
_atom_site_occupancy
_atom_site_attached_hydrogens
P1 P3- 8 j 0.19630(8) 0.10055(4) 0 . 1. 0
Al1 Al3+ 4 a 0 0 0.25 . 1. 0
Na1 Na1+ 8 j 0.31203(19) 0.30794(8) 0 . 1. 0
Na2 Na1+ 4 b 0.5 0 0.25 . 1. 0
loop_
_atom_site_aniso_label
_atom_site_aniso_type_symbol
_atom_site_aniso_U_11
_atom_site_aniso_U_22
_atom_site_aniso_U_33
_atom_site_aniso_U_12
_atom_site_aniso_U_13
_atom_site_aniso_U_23
P1 P3- 0.01834(28) 0.01720(28) 0.01744(29) -.00253(19) 0 0
Al1 Al3+ 0.01731(38) 0.01512(37) 0.01488(42) 0 0 0
Na1 Na1+ 0.04167(60) 0.02868(52) 0.05331(69) -.01359(47) 0 0
Na2 Na1+ 0.02089(56) 0.03765(66) 0.01932(61) 0 0 0
#End of TTdata_402081-ICSD