
#(C) 2017 by FIZ Karlsruhe - Leibniz Institute for Information Infrastructure.  All rights reserved.
data_402084-ICSD
_database_code_ICSD 402084
_audit_creation_date 1996-04-22
_audit_update_record 2012-02-01
_chemical_name_systematic 'Trirubidium diphosphidoborate'
_chemical_formula_structural 'Rb3 (B P2)'
_chemical_formula_sum 'B1 P2 Rb3'
_chemical_name_structure_type K3BP2
_exptl_crystal_density_diffrn 2.82
_publ_section_title

;
Crystal structures of trirubidium diarsenidoborate, Rb3 B As2 and trirubidium
diphosphidoborate, Rb3 B P2
;
loop_
_citation_id
_citation_journal_full
_citation_year
_citation_journal_volume
_citation_page_first
_citation_page_last
_citation_journal_id_ASTM
primary 'Zeitschrift fuer Kristallographie (1979-2010)' 1995 210 779 780 ZEKRDZ
loop_
_publ_author_name
'Somer, M.'
'Carrillo Cabrera, W.'
'Peters, E.M.'
'Peters, K.'
'von Schnering, H.G.'
_cell_length_a 9.533(1)
_cell_length_b 9.229(1)
_cell_length_c 9.418(1)
_cell_angle_alpha 90.
_cell_angle_beta 110.53(1)
_cell_angle_gamma 90.
_cell_volume 775.97
_cell_formula_units_Z 4
_symmetry_space_group_name_H-M 'C 1 2/c 1'
_symmetry_Int_Tables_number 15
_refine_ls_R_factor_all 0.062
loop_
_symmetry_equiv_pos_site_id
_symmetry_equiv_pos_as_xyz
1 'x, -y, z+1/2'
2 '-x, -y, -z'
3 '-x, y, -z+1/2'
4 'x, y, z'
5 'x+1/2, -y+1/2, z+1/2'
6 '-x+1/2, -y+1/2, -z'
7 '-x+1/2, y+1/2, -z+1/2'
8 'x+1/2, y+1/2, z'
loop_
_atom_type_symbol
_atom_type_oxidation_number
Rb1+ 1
P3- -3
B3+ 3
loop_
_atom_site_label
_atom_site_type_symbol
_atom_site_symmetry_multiplicity
_atom_site_Wyckoff_symbol
_atom_site_fract_x
_atom_site_fract_y
_atom_site_fract_z
_atom_site_B_iso_or_equiv
_atom_site_occupancy
_atom_site_attached_hydrogens
Rb1 Rb1+ 4 e 0 0.15627(21) 0.75 . 1. 0
Rb2 Rb1+ 8 f 0.29212(12) 0.04987(14) 0.51770(13) . 1. 0
P1 P3- 8 f -.12132(30) 0.22073(35) 0.35516(33) . 1. 0
B1 B3+ 4 e 0 0.2147(20) 0.25 . 1. 0
loop_
_atom_site_aniso_label
_atom_site_aniso_type_symbol
_atom_site_aniso_U_11
_atom_site_aniso_U_22
_atom_site_aniso_U_33
_atom_site_aniso_U_12
_atom_site_aniso_U_13
_atom_site_aniso_U_23
Rb1 Rb1+ 0.03121(84) 0.0359(10) 0.02756(91) 0 0.00439(62) 0
Rb2 Rb1+ 0.03772(64) 0.02495(61) 0.02688(60) -.00645(52) 0.00695(41) -.00143(55)
P1 P3- 0.0296(14) 0.0316(17) 0.0253(15) -.0002(13) 0.0138(11) 0.0028(13)
B1 B3+ 0.0143(61) 0.0299(92) 0.0114(68) 0 0.0086(50) 0
#End of TTdata_402084-ICSD