
#(C) 2017 by FIZ Karlsruhe - Leibniz Institute for Information Infrastructure.  All rights reserved.
data_402082-ICSD
_database_code_ICSD 402082
_audit_creation_date 1996-04-22
_audit_update_record 2012-02-01
_chemical_name_systematic 'Trirubidium diarsenidoborate'
_chemical_formula_structural 'Rb3 (B As2)'
_chemical_formula_sum 'As2 B1 Rb3'
_chemical_name_structure_type K3BP2
_exptl_crystal_density_diffrn 3.33
_publ_section_title

;
Crystal structures of trirubidium diarsenidoborate, Rb3 B As2 and trirubidium
diphosphidoborate, Rb3 B P2
;
loop_
_citation_id
_citation_journal_full
_citation_year
_citation_journal_volume
_citation_page_first
_citation_page_last
_citation_journal_id_ASTM
primary 'Zeitschrift fuer Kristallographie (1979-2010)' 1995 210 779 780 ZEKRDZ
loop_
_publ_author_name
'Somer, M.'
'Carrillo Cabrera, W.'
'Peters, E.M.'
'Peters, K.'
'von Schnering, H.G.'
_cell_length_a 9.7720(28)
_cell_length_b 9.4429(21)
_cell_length_c 9.6494(39)
_cell_angle_alpha 90.
_cell_angle_beta 111.077(27)
_cell_angle_gamma 90.
_cell_volume 830.84
_cell_formula_units_Z 4
_symmetry_space_group_name_H-M 'C 1 2/c 1'
_symmetry_Int_Tables_number 15
_refine_ls_R_factor_all 0.067
loop_
_symmetry_equiv_pos_site_id
_symmetry_equiv_pos_as_xyz
1 'x, -y, z+1/2'
2 '-x, -y, -z'
3 '-x, y, -z+1/2'
4 'x, y, z'
5 'x+1/2, -y+1/2, z+1/2'
6 '-x+1/2, -y+1/2, -z'
7 '-x+1/2, y+1/2, -z+1/2'
8 'x+1/2, y+1/2, z'
loop_
_atom_type_symbol
_atom_type_oxidation_number
Rb1+ 1
As3- -3
B3+ 3
loop_
_atom_site_label
_atom_site_type_symbol
_atom_site_symmetry_multiplicity
_atom_site_Wyckoff_symbol
_atom_site_fract_x
_atom_site_fract_y
_atom_site_fract_z
_atom_site_B_iso_or_equiv
_atom_site_occupancy
_atom_site_attached_hydrogens
Rb1 Rb1+ 8 f 0.2937(2) 0.0523(2) 0.4819(2) . 1. 0
Rb2 Rb1+ 4 e 0 0.1523(2) 0.75 . 1. 0
As1 As3- 8 f -.1255(2) 0.2211(2) 0.3569(2) . 1. 0
B1 B3+ 4 e 0 0.220(2) 0.25 0.011(5) 1. 0
loop_
_atom_site_aniso_label
_atom_site_aniso_type_symbol
_atom_site_aniso_U_11
_atom_site_aniso_U_22
_atom_site_aniso_U_33
_atom_site_aniso_U_12
_atom_site_aniso_U_13
_atom_site_aniso_U_23
Rb1 Rb1+ 0.0228(14) 0.0407(13) 0.0273(14) 0 0.0058(12) 0
Rb2 Rb1+ 0.0309(10) 0.02879(77) 0.032(1) -.00725(94) 0.00925(82) -.00184(85)
As1 As3- 0.02286(95) 0.0384(10) 0.027(1) -.0001(10) 0.01571(83) 0.00237(89)
#End of TTdata_402082-ICSD