
data_402701-ICSD
_database_code_ICSD 402701
_audit_creation_date 2003-10-01
_chemical_name_systematic 'Zirconium iron aluminium (6/1/2)'
_chemical_formula_structural 'Zr6 Fe Al2'
_chemical_formula_sum 'Al2 Fe1 Zr6'
_chemical_name_structure_type InMg2
_exptl_crystal_density_diffrn 5.98
_cell_length_a 7.9207(19)
_cell_length_b 7.9207(19)
_cell_length_c 3.3603(9)
_cell_angle_alpha 90.
_cell_angle_beta 90.
_cell_angle_gamma 120.
_cell_volume 182.57
_cell_formula_units_Z 1
_symmetry_space_group_name_H-M 'P -6 2 m'
_symmetry_Int_Tables_number 189
_refine_ls_R_factor_all 0.038
loop_
_symmetry_equiv_pos_site_id
_symmetry_equiv_pos_as_xyz
1 '-x, -x+y, -z'
2 'x-y, -y, -z'
3 'y, x, -z'
4 '-x, -x+y, z'
5 'x-y, -y, z'
6 'y, x, z'
7 '-x+y, -x, -z'
8 '-y, x-y, -z'
9 'x, y, -z'
10 '-x+y, -x, z'
11 '-y, x-y, z'
12 'x, y, z'
loop_
_atom_type_symbol
_atom_type_oxidation_number
Zr0+ 0
Al0+ 0
Fe0+ 0
loop_
_atom_site_label
_atom_site_type_symbol
_atom_site_symmetry_multiplicity
_atom_site_Wyckoff_symbol
_atom_site_fract_x
_atom_site_fract_y
_atom_site_fract_z
_atom_site_B_iso_or_equiv
_atom_site_occupancy
_atom_site_attached_hydrogens
Zr1 Zr0+ 3 g 0.2531(3) 0 0.5 . 1. 0
Zr2 Zr0+ 3 f 0.6035(3) 0 0 . 1. 0
Al1 Al0+ 2 d 0.3333 0.6667 0.5 . 1. 0
Fe1 Fe0+ 1 a 0 0 0 . 1. 0
loop_
_atom_site_aniso_label
_atom_site_aniso_type_symbol
_atom_site_aniso_U_11
_atom_site_aniso_U_22
_atom_site_aniso_U_33
_atom_site_aniso_U_12
_atom_site_aniso_U_13
_atom_site_aniso_U_23
Zr1 Zr0+ 0.0047(8) 0.0057(9) 0.0113(7) 0.0028(5) 0 0
Zr2 Zr0+ 0.0077(8) 0.0087(10) 0.0114(7) 0.0044(5) 0 0
Al1 Al0+ 0.005(3) 0.005(3) 0.021(3) 0.0025(11) 0 0
Fe1 Fe0+ 0.0086(15) 0.0086(15) 0.014(2) 0.0043(8) 0 0
