
#(C) 2017 by FIZ Karlsruhe - Leibniz Institute for Information Infrastructure.  All rights reserved.
data_40372-ICSD
_database_code_ICSD 40372
_audit_creation_date 1999-06-02
_chemical_name_systematic 'Pentacalcium digallium tetranitride'
_chemical_formula_structural 'Ca5 Ga2 N4'
_chemical_formula_sum 'Ca5 Ga2 N4'
_exptl_crystal_density_diffrn 3.42
_publ_section_title 'Darstellung und Kristallstruktur von Ca5 Ga2 N4'
loop_
_citation_id
_citation_journal_full
_citation_year
_citation_journal_volume
_citation_page_first
_citation_page_last
_citation_journal_id_ASTM
primary 'Zeitschrift fuer Naturforschung, B: Chemical Sciences' 1988 43 1253
1255 ZNBSEN
loop_
_publ_author_name
'Cordier, G.'
_cell_length_a 4.873(2)
_cell_length_b 11.105(3)
_cell_length_c 14.217(4)
_cell_angle_alpha 90.
_cell_angle_beta 90.
_cell_angle_gamma 90.
_cell_volume 769.35
_cell_formula_units_Z 4
_symmetry_space_group_name_H-M 'C m c a'
_symmetry_Int_Tables_number 64
_refine_ls_R_factor_all 0.064
loop_
_symmetry_equiv_pos_site_id
_symmetry_equiv_pos_as_xyz
1 '-x, -y+1/2, z+1/2'
2 '-x, y+1/2, -z+1/2'
3 '-x, y, z'
4 '-x, -y, -z'
5 'x, y+1/2, -z+1/2'
6 'x, -y+1/2, z+1/2'
7 'x, -y, -z'
8 'x, y, z'
9 '-x+1/2, -y, z+1/2'
10 '-x+1/2, y, -z+1/2'
11 '-x+1/2, y+1/2, z'
12 '-x+1/2, -y+1/2, -z'
13 'x+1/2, y, -z+1/2'
14 'x+1/2, -y, z+1/2'
15 'x+1/2, -y+1/2, -z'
16 'x+1/2, y+1/2, z'
loop_
_atom_type_symbol
_atom_type_oxidation_number
Ca0+ 0
Ga0+ 0
N0+ 0
loop_
_atom_site_label
_atom_site_type_symbol
_atom_site_symmetry_multiplicity
_atom_site_Wyckoff_symbol
_atom_site_fract_x
_atom_site_fract_y
_atom_site_fract_z
_atom_site_B_iso_or_equiv
_atom_site_occupancy
_atom_site_attached_hydrogens
Ca1 Ca0+ 4 b 0.5 0 0 0.0056(16) 1. 0
Ca2 Ca0+ 8 f 0 0.7223(3) 0.4211(2) 0.0068(13) 1. 0
Ca3 Ca0+ 8 f 0 0.3862(3) 0.3504(2) 0.0069(12) 1. 0
Ga1 Ga0+ 8 f 0 0.5921(1) 0.1961(1) 0.0064(7) 1. 0
N1 N0+ 8 f 0 0.195(1) 0.4178(8) 0.0070(53) 1. 0
N2 N0+ 8 f 0 0.4206(11) 0.1575(5) 0.0107(58) 1. 0
#End of TTdata_40372-ICSD