
#(C) 2017 by FIZ Karlsruhe - Leibniz Institute for Information Infrastructure.  All rights reserved.
data_40375-ICSD
_database_code_ICSD 40375
_audit_creation_date 1999-06-02
_audit_update_record 2015-02-01
_chemical_name_systematic 'Trithallium triselenidoborate'
_chemical_formula_structural 'Tl3 (B Se3)'
_chemical_formula_sum 'B1 Se3 Tl3'
_chemical_name_structure_type Tl3BSe3
_exptl_crystal_density_diffrn 7.51
_cell_measurement_temperature 295.
_publ_section_title

;
Ortho-thioborates and ortho-selenoborates: synthesis, structure and properties
of Tl3 B S3 and Tl3 B Se3
;
loop_
_citation_id
_citation_journal_full
_citation_year
_citation_journal_volume
_citation_page_first
_citation_page_last
_citation_journal_id_ASTM
primary 'Journal of the Less-Common Metals' 1988 137 143 154 JCOMAH
loop_
_publ_author_name
'Krebs, B.'
'Hamann, W.'
_cell_length_a 5.547(2)
_cell_length_b 10.099(3)
_cell_length_c 6.852(2)
_cell_angle_alpha 90.
_cell_angle_beta 97.59(3)
_cell_angle_gamma 90.
_cell_volume 380.48
_cell_formula_units_Z 2
_symmetry_space_group_name_H-M 'P 1 21/m 1'
_symmetry_Int_Tables_number 11
_refine_ls_R_factor_all 0.058
loop_
_symmetry_equiv_pos_site_id
_symmetry_equiv_pos_as_xyz
1 'x, -y+1/2, z'
2 '-x, -y, -z'
3 '-x, y+1/2, -z'
4 'x, y, z'
loop_
_atom_type_symbol
_atom_type_oxidation_number
Tl1+ 1
Se2- -2
B3+ 3
loop_
_atom_site_label
_atom_site_type_symbol
_atom_site_symmetry_multiplicity
_atom_site_Wyckoff_symbol
_atom_site_fract_x
_atom_site_fract_y
_atom_site_fract_z
_atom_site_B_iso_or_equiv
_atom_site_occupancy
_atom_site_attached_hydrogens
Tl1 Tl1+ 2 e 0.8088(4) 0.25 -.0190(3) . 1. 0
Tl2 Tl1+ 4 f 0.7322(3) 0.5582(2) 0.3327(2) . 1. 0
Se1 Se2- 2 e 0.6911(8) 0.25 0.4512(7) . 1. 0
Se2 Se2- 4 f 0.2496(6) 0.0821(3) 0.1689(6) . 1. 0
B1 B3+ 2 e 0.399(8) 0.25 0.254(7) 1.7(9) 1. 0
loop_
_atom_site_aniso_label
_atom_site_aniso_type_symbol
_atom_site_aniso_B_11
_atom_site_aniso_B_22
_atom_site_aniso_B_33
_atom_site_aniso_B_12
_atom_site_aniso_B_13
_atom_site_aniso_B_23
Tl1 Tl1+ 3.05(7) 2.94(7) 2.69(8) 0 0.59(7) 0
Tl2 Tl1+ 3.49(5) 2.95(5) 3.52(6) -.07(7) 1.03(5) -.34(6)
Se1 Se2- 2.54(16) 2.59(15) 2.38(18) 0 0.16(16) 0
Se2 Se2- 2.46(11) 2.13(10) 2.75(14) 0.03(12) 0.18(11) 0.42(10)
#End of TTdata_40375-ICSD