
#(C) 2017 by FIZ Karlsruhe - Leibniz Institute for Information Infrastructure.  All rights reserved.
data_404193-ICSD
_database_code_ICSD 404193
_audit_creation_date 1996-10-14
_audit_update_record 2000-07-15
_chemical_name_systematic 'Titanium selenide (9/2)'
_chemical_formula_structural 'Ti9 Se2'
_chemical_formula_sum 'Se2 Ti9'
_exptl_crystal_density_diffrn 5.28
_publ_section_title
'Ti9 Se2 - Eine Verbindung mit kolumnaren 1/infinite(Ti9)Baueinheiten'
loop_
_citation_id
_citation_journal_full
_citation_year
_citation_journal_volume
_citation_page_first
_citation_page_last
_citation_journal_id_ASTM
primary 'Zeitschrift fuer Anorganische und Allgemeine Chemie (1950) (DE)' 1996
622 630 634 ZAACAB
loop_
_publ_author_name
'Weirich, T.E.'
'Simon, A.'
'Poettgen, R.'
_cell_length_a 6.917(2)
_cell_length_b 15.505(9)
_cell_length_c 3.454(2)
_cell_angle_alpha 90.
_cell_angle_beta 90.
_cell_angle_gamma 90.
_cell_volume 370.43
_cell_formula_units_Z 2
_symmetry_space_group_name_H-M 'P b a m'
_symmetry_Int_Tables_number 55
_refine_ls_R_factor_all 0.0379
loop_
_symmetry_equiv_pos_site_id
_symmetry_equiv_pos_as_xyz
1 'x+1/2, -y+1/2, z'
2 '-x+1/2, y+1/2, z'
3 'x, y, -z'
4 '-x, -y, -z'
5 '-x+1/2, y+1/2, -z'
6 'x+1/2, -y+1/2, -z'
7 '-x, -y, z'
8 'x, y, z'
loop_
_atom_type_symbol
_atom_type_oxidation_number
Ti0+ 0
Se0+ 0
loop_
_atom_site_label
_atom_site_type_symbol
_atom_site_symmetry_multiplicity
_atom_site_Wyckoff_symbol
_atom_site_fract_x
_atom_site_fract_y
_atom_site_fract_z
_atom_site_B_iso_or_equiv
_atom_site_occupancy
_atom_site_attached_hydrogens
Ti1 Ti0+ 2 a 0 0 0 . 1. 0
Ti2 Ti0+ 4 g 0.39129(15) 0.07875(6) 0 . 1. 0
Ti3 Ti0+ 4 g 0.27685(14) 0.28922(6) 0 . 1. 0
Ti4 Ti0+ 4 h 0.09624(15) 0.14034(6) 0.5 . 1. 0
Ti5 Ti0+ 4 h 0.21619(14) 0.44364(7) 0.5 . 1. 0
Se1 Se0+ 4 h 0.48177(7) 0.19751(3) 0.5 . 1. 0
loop_
_atom_site_aniso_label
_atom_site_aniso_type_symbol
_atom_site_aniso_U_11
_atom_site_aniso_U_22
_atom_site_aniso_U_33
_atom_site_aniso_U_12
_atom_site_aniso_U_13
_atom_site_aniso_U_23
Ti1 Ti0+ 0.0057(5) 0.0074(6) 0.0052(6) -.0012(4) 0 0
Ti2 Ti0+ 0.0075(4) 0.0056(4) 0.0076(5) -.0002(3) 0 0
Ti3 Ti0+ 0.0087(4) 0.0082(4) 0.0071(5) 0.0022(3) 0 0
Ti4 Ti0+ 0.0072(4) 0.0064(4) 0.0120(5) -.0001(3) 0 0
Ti5 Ti0+ 0.0074(4) 0.0077(4) 0.0117(5) 0.0002(3) 0 0
Se1 Se0+ 0.0070(2) 0.0061(2) 0.0060(3) -.0002(2) 0 0
#End of TTdata_404193-ICSD