
data_40463-ICSD
_database_code_ICSD 40463
_audit_creation_date 1999-06-02
_audit_update_record 2007-08-01
_chemical_name_systematic 'Dipotassium ditin oxide - LT'
_chemical_formula_structural 'K2 Sn2 O3'
_chemical_formula_sum 'K2 O3 Sn2'
_chemical_name_structure_type Hg3S2Cl2
_exptl_crystal_density_diffrn 4.06
_cell_length_a 8.4100(8)
_cell_length_b 8.4100(8)
_cell_length_c 8.4100(8)
_cell_angle_alpha 90.
_cell_angle_beta 90.
_cell_angle_gamma 90.
_cell_volume 594.82
_cell_formula_units_Z 4
_symmetry_space_group_name_H-M 'I 21 3'
_symmetry_Int_Tables_number 199
loop_
_symmetry_equiv_pos_site_id
_symmetry_equiv_pos_as_xyz
1 '-z+1/2, -x, y+1/2'
2 '-y+1/2, -z, x+1/2'
3 '-x+1/2, -y, z+1/2'
4 '-z, x+1/2, -y+1/2'
5 '-y, z+1/2, -x+1/2'
6 '-x, y+1/2, -z+1/2'
7 'z+1/2, -x+1/2, -y'
8 'y+1/2, -z+1/2, -x'
9 'x+1/2, -y+1/2, -z'
10 'z, x, y'
11 'y, z, x'
12 'x, y, z'
13 '-z, -x+1/2, y'
14 '-y, -z+1/2, x'
15 '-x, -y+1/2, z'
16 '-z+1/2, x, -y'
17 '-y+1/2, z, -x'
18 '-x+1/2, y, -z'
19 'z, -x, -y+1/2'
20 'y, -z, -x+1/2'
21 'x, -y, -z+1/2'
22 'z+1/2, x+1/2, y+1/2'
23 'y+1/2, z+1/2, x+1/2'
24 'x+1/2, y+1/2, z+1/2'
loop_
_atom_type_symbol
_atom_type_oxidation_number
K1+ 1
Sn2+ 2
O2- -2
loop_
_atom_site_label
_atom_site_type_symbol
_atom_site_symmetry_multiplicity
_atom_site_Wyckoff_symbol
_atom_site_fract_x
_atom_site_fract_y
_atom_site_fract_z
_atom_site_B_iso_or_equiv
_atom_site_occupancy
_atom_site_attached_hydrogens
K1 K1+ 8 a 0.5232 0.5232 0.5232 . 1. 0
Sn1 Sn2+ 8 a 0.2562 0.2562 0.2562 . 1. 0
O1 O2- 12 b 0.2887 0 0.25 1.7 1. 0
loop_
_atom_site_aniso_label
_atom_site_aniso_type_symbol
_atom_site_aniso_B_11
_atom_site_aniso_B_22
_atom_site_aniso_B_33
_atom_site_aniso_B_12
_atom_site_aniso_B_13
_atom_site_aniso_B_23
K1 K1+ 0.87(2) 0.87(2) 0.87(2) 0.18(3) 0.18(3) 0.18(3)
Sn1 Sn2+ 0.56(3) 0.56(3) 0.56(3) 0.06(3) 0.06(3) 0.06(3)
