
#(C) 2017 by FIZ Karlsruhe - Leibniz Institute for Information Infrastructure.  All rights reserved.
data_40568-ICSD
_database_code_ICSD 40568
_audit_creation_date 1999-11-30
_chemical_name_systematic 'Lithium tantalum nitride (2/3/5)'
_chemical_formula_structural 'Li2 Ta3 N5'
_chemical_formula_sum 'Li2 N5 Ta3'
_exptl_crystal_density_diffrn 10.68
_publ_section_title

;
Synthese und Kristallstruktur eines gemischtvalenten Lithium-Tantalnitrides
Li2 Ta3 N5
;
loop_
_citation_id
_citation_journal_full
_citation_year
_citation_journal_volume
_citation_page_first
_citation_page_last
_citation_journal_id_ASTM
primary 'Journal of Alloys and Compounds' 1991 176 47 60 JALCEU
loop_
_publ_author_name
'Brokamp, T.'
'Jacobs, H.'
_cell_length_a 9.812(2)
_cell_length_b 4.201(1)
_cell_length_c 9.460(2)
_cell_angle_alpha 90.
_cell_angle_beta 90.93(1)
_cell_angle_gamma 90.
_cell_volume 389.89
_cell_formula_units_Z 4
_symmetry_space_group_name_H-M 'C 1 2/m 1'
_symmetry_Int_Tables_number 12
_refine_ls_R_factor_all 0.0503
loop_
_symmetry_equiv_pos_site_id
_symmetry_equiv_pos_as_xyz
1 '-x, y, -z'
2 '-x, -y, -z'
3 'x, -y, z'
4 'x, y, z'
5 '-x+1/2, y+1/2, -z'
6 '-x+1/2, -y+1/2, -z'
7 'x+1/2, -y+1/2, z'
8 'x+1/2, y+1/2, z'
loop_
_atom_type_symbol
_atom_type_oxidation_number
Ta4+ 4.33
Li1+ 1
N3- -3
loop_
_atom_site_label
_atom_site_type_symbol
_atom_site_symmetry_multiplicity
_atom_site_Wyckoff_symbol
_atom_site_fract_x
_atom_site_fract_y
_atom_site_fract_z
_atom_site_B_iso_or_equiv
_atom_site_occupancy
_atom_site_attached_hydrogens
Ta1 Ta4+ 4 i 0.140(1) 0 0.050(1) 0.47(7) 1. 0
Ta2 Ta4+ 4 i 0.760(1) 0 0.256(1) 0.47(7) 1. 0
Ta3 Ta4+ 4 i 0.058(1) 0 0.359(1) 0.47(7) 1. 0
Li1 Li1+ 4 i 0.37(1) 0 0.47(1) 0.47(7) 1. 0
Li2 Li1+ 4 i 0.42(1) 0 0.18(1) 0.47(1) 1. 0
N1 N3- 4 i 0.653(3) 0 0.058(4) 0.3(4) 1. 0
N2 N3- 4 i 0.250(2) 0 0.250(4) 0.3(4) 1. 0
N3 N3- 4 i 0.577(3) 0 0.347(4) 0.3(4) 1. 0
N4 N3- 4 i 0.947(3) 0 0.149(4) 0.3(4) 1. 0
N5 N3- 4 i 0.862(3) 0 0.442(4) 0.3(4) 1. 0
#End of TTdata_40568-ICSD