
#(C) 2017 by FIZ Karlsruhe - Leibniz Institute for Information Infrastructure.  All rights reserved.
data_406951-ICSD
_database_code_ICSD 406951
_audit_creation_date 1998-06-26
_chemical_name_systematic 'Bismuth ruthenium bromide (4/1/2)'
_chemical_formula_structural 'Bi4 Ru Br2'
_chemical_formula_sum 'Bi4 Br2 Ru1'
_exptl_crystal_density_diffrn 8.45
_publ_section_title

;
Bi4 Ru Br2 und Bi4 Ru I2: Zwei Varianten einer Kolumnarstruktur mit
flaechenverknuepften quadratischen (Ru Bi8/2)-Antiprismen
;
loop_
_citation_id
_citation_journal_full
_citation_year
_citation_journal_volume
_citation_page_first
_citation_page_last
_citation_journal_id_ASTM
primary 'Zeitschrift fuer Anorganische und Allgemeine Chemie (1950) (DE)' 1997
623 1583 1590 ZAACAB
loop_
_publ_author_name
'Ruck, M.'
_cell_length_a 12.119(2)
_cell_length_b 10.726(2)
_cell_length_c 6.639(2)
_cell_angle_alpha 90.
_cell_angle_beta 90.
_cell_angle_gamma 91.63(1)
_cell_volume 862.64
_cell_formula_units_Z 4
_symmetry_space_group_name_H-M 'I 1 1 2/m'
_symmetry_Int_Tables_number 12
_refine_ls_R_factor_all 0.0754
loop_
_symmetry_equiv_pos_site_id
_symmetry_equiv_pos_as_xyz
1 'x, y, -z'
2 '-x, -y, -z'
3 '-x, -y, z'
4 'x, y, z'
5 'x+1/2, y+1/2, -z+1/2'
6 '-x+1/2, -y+1/2, -z+1/2'
7 '-x+1/2, -y+1/2, z+1/2'
8 'x+1/2, y+1/2, z+1/2'
loop_
_atom_type_symbol
_atom_type_oxidation_number
Bi0+ 0
Bi1+ 1
Ru0+ 0
Br1- -1
loop_
_atom_site_label
_atom_site_type_symbol
_atom_site_symmetry_multiplicity
_atom_site_Wyckoff_symbol
_atom_site_fract_x
_atom_site_fract_y
_atom_site_fract_z
_atom_site_B_iso_or_equiv
_atom_site_occupancy
_atom_site_attached_hydrogens
Bi1 Bi0+ 4 i 0.44228(7) 0.30619(8) 0 . 1. 0
Bi2 Bi0+ 4 i 0.33183(7) 0.55943(8) 0 . 1. 0
Bi3 Bi1+ 4 i 0.32378(7) 0.39448(8) 0.5 . 1. 0
Bi4 Bi1+ 4 i 0.58832(7) 0.30269(8) 0.5 . 1. 0
Ru1 Ru0+ 4 g 0.5 0.5 0.2883(2) . 1. 0
Br1 Br1- 4 i 0.3950(2) 0.1286(2) 0.5 . 1. 0
Br2 Br1- 4 i 0.1692(2) 0.6064(3) 0.5 . 1. 0
loop_
_atom_site_aniso_label
_atom_site_aniso_type_symbol
_atom_site_aniso_U_11
_atom_site_aniso_U_22
_atom_site_aniso_U_33
_atom_site_aniso_U_12
_atom_site_aniso_U_13
_atom_site_aniso_U_23
Bi1 Bi0+ 0.0256(5) 0.0212(5) 0.0224(5) -.0030(4) 0 0
Bi2 Bi0+ 0.0183(5) 0.0296(5) 0.0206(5) 0.0031(4) 0 0
Bi3 Bi1+ 0.0185(4) 0.0229(5) 0.0230(5) -.0048(4) 0 0
Bi4 Bi1+ 0.0255(5) 0.0201(5) 0.0233(5) 0.0025(4) 0 0
Ru1 Ru0+ 0.0178(9) 0.0205(9) 0.0129(9) 0.0012(7) 0 0
Br1 Br1- 0.040(2) 0.0228(13) 0.067(2) -.0068(11) 0 0
Br2 Br1- 0.0220(12) 0.0412(15) 0.068(2) 0.0070(11) 0 0
#End of TTdata_406951-ICSD