
#(C) 2017 by FIZ Karlsruhe - Leibniz Institute for Information Infrastructure.  All rights reserved.
data_407033-ICSD
_database_code_ICSD 407033
_audit_creation_date 1999-11-30
_chemical_name_systematic 'Trilanthanum tetranitridodiborate'
_chemical_formula_structural 'La3 (B2 N4)'
_chemical_formula_sum 'B2 La3 N4'
_chemical_name_structure_type Ce3B2N4
_exptl_crystal_density_diffrn 6.43
_publ_section_title

;
The nitrido borates Ln3 B2 N4 (Ln= La-Nd) and La5 B4 N9: Synthesis,
structures, and properties
;
loop_
_citation_id
_citation_journal_full
_citation_year
_citation_journal_volume
_citation_page_first
_citation_page_last
_citation_journal_id_ASTM
primary 'Zeitschrift fuer Anorganische und Allgemeine Chemie (1950) (DE)' 1999
625 866 874 ZAACAB
loop_
_publ_author_name
'Reckeweg, O.'
'Meyer, H.J.'
_cell_length_a 3.6294(3)
_cell_length_b 6.4125(6)
_cell_length_c 10.9720(8)
_cell_angle_alpha 90.
_cell_angle_beta 90.
_cell_angle_gamma 90.
_cell_volume 255.36
_cell_formula_units_Z 2
_symmetry_space_group_name_H-M 'I m m m'
_symmetry_Int_Tables_number 71
_refine_ls_R_factor_all 0.0353
loop_
_symmetry_equiv_pos_site_id
_symmetry_equiv_pos_as_xyz
1 'x, y, -z'
2 'x, -y, z'
3 '-x, y, z'
4 '-x, -y, -z'
5 '-x, -y, z'
6 '-x, y, -z'
7 'x, -y, -z'
8 'x, y, z'
9 'x+1/2, y+1/2, -z+1/2'
10 'x+1/2, -y+1/2, z+1/2'
11 '-x+1/2, y+1/2, z+1/2'
12 '-x+1/2, -y+1/2, -z+1/2'
13 '-x+1/2, -y+1/2, z+1/2'
14 '-x+1/2, y+1/2, -z+1/2'
15 'x+1/2, -y+1/2, -z+1/2'
16 'x+1/2, y+1/2, z+1/2'
loop_
_atom_type_symbol
_atom_type_oxidation_number
La3+ 3
B2+ 2
N3- -3.25
loop_
_atom_site_label
_atom_site_type_symbol
_atom_site_symmetry_multiplicity
_atom_site_Wyckoff_symbol
_atom_site_fract_x
_atom_site_fract_y
_atom_site_fract_z
_atom_site_B_iso_or_equiv
_atom_site_occupancy
_atom_site_attached_hydrogens
La1 La3+ 2 a 0 0 0 . 1. 0
La2 La3+ 4 j 0.5 0 0.29893(6) . 1. 0
B1 B2+ 4 h 0 0.1416(28) 0.5 . 1. 0
N1 N3- 8 l 0 0.2575(13) 0.3815(7) . 1. 0
loop_
_atom_site_aniso_label
_atom_site_aniso_type_symbol
_atom_site_aniso_U_11
_atom_site_aniso_U_22
_atom_site_aniso_U_33
_atom_site_aniso_U_12
_atom_site_aniso_U_13
_atom_site_aniso_U_23
La1 La3+ 0.0066(7) 0.0052(6) 0.0050(6) 0 0 0
La2 La3+ 0.0033(5) 0.0036(5) 0.0042(4) 0 0 0
B1 B2+ 0.005(8) 0.017(8) 0.013(7) 0 0 0
N1 N3- 0.010(4) 0.005(4) 0.006(3) 0 0 0.000(3)
#End of TTdata_407033-ICSD