
data_407327-ICSD
_database_code_ICSD 407327
_audit_creation_date 1998-06-26
_audit_update_record 2016-02-01
_chemical_name_systematic 'Trirubidium peroxoniobate'
_chemical_formula_structural 'Rb3 Nb (O2)4'
_chemical_formula_sum 'Nb1 O8 Rb3'
_chemical_name_structure_type K3CrO8
_exptl_crystal_density_diffrn 3.94
_cell_length_a 7.061(1)
_cell_length_b 7.061(1)
_cell_length_c 8.063(2)
_cell_angle_alpha 90.
_cell_angle_beta 90.
_cell_angle_gamma 90.
_cell_volume 402.
_cell_formula_units_Z 2
_symmetry_space_group_name_H-M 'I -4 2 m'
_symmetry_Int_Tables_number 121
_refine_ls_R_factor_all 0.041
loop_
_symmetry_equiv_pos_site_id
_symmetry_equiv_pos_as_xyz
1 '-y, -x, z'
2 'y, x, z'
3 'y, -x, -z'
4 '-y, x, -z'
5 'x, -y, -z'
6 '-x, y, -z'
7 '-x, -y, z'
8 'x, y, z'
9 '-y+1/2, -x+1/2, z+1/2'
10 'y+1/2, x+1/2, z+1/2'
11 'y+1/2, -x+1/2, -z+1/2'
12 '-y+1/2, x+1/2, -z+1/2'
13 'x+1/2, -y+1/2, -z+1/2'
14 '-x+1/2, y+1/2, -z+1/2'
15 '-x+1/2, -y+1/2, z+1/2'
16 'x+1/2, y+1/2, z+1/2'
loop_
_atom_type_symbol
_atom_type_oxidation_number
Rb1+ 1
Nb5+ 5
O1- -1
loop_
_atom_site_label
_atom_site_type_symbol
_atom_site_symmetry_multiplicity
_atom_site_Wyckoff_symbol
_atom_site_fract_x
_atom_site_fract_y
_atom_site_fract_z
_atom_site_B_iso_or_equiv
_atom_site_occupancy
_atom_site_attached_hydrogens
Rb1 Rb1+ 2 b 1 1 0.5 . 1. 0
Rb2 Rb1+ 4 d 1 0.5 0.75 . 1. 0
Nb1 Nb5+ 2 a 1 1 1 . 1. 0
O1 O1- 8 i 0.7946(8) 0.7946(8) 0.9818(11) . 1. 0
O2 O1- 8 i 0.8658(8) 0.8658(8) 0.8173(8) . 1. 0
loop_
_atom_site_aniso_label
_atom_site_aniso_type_symbol
_atom_site_aniso_U_11
_atom_site_aniso_U_22
_atom_site_aniso_U_33
_atom_site_aniso_U_12
_atom_site_aniso_U_13
_atom_site_aniso_U_23
Rb1 Rb1+ 0.0285(7) 0.0285(7) 0.0225(8) 0 0 0
Rb2 Rb1+ 0.0292(6) 0.0292(6) 0.0452(8) 0 0 0
Nb1 Nb5+ 0.0216(6) 0.0216(6) 0.0142(7) 0 0 0
O1 O1- 0.031(2) 0.031(2) 0.024(4) -.010(3) 0.002(2) 0.002(2)
O2 O1- 0.036(3) 0.036(3) 0.023(3) -.001(4) -.007(2) -.007(2)
