
data_408045-ICSD
_database_code_ICSD 408045
_audit_creation_date 2005-10-01
_chemical_name_systematic 'Sodium pentastannide'
_chemical_formula_structural 'Na Sn5'
_chemical_formula_sum 'Na1 Sn5'
_exptl_crystal_density_diffrn 5.89
_cell_length_a 6.2850(10)
_cell_length_b 6.2850(10)
_cell_length_c 8.794(2)
_cell_angle_alpha 90.
_cell_angle_beta 90.
_cell_angle_gamma 90.
_cell_volume 347.37
_cell_formula_units_Z 2
_symmetry_space_group_name_H-M 'P -4 21 m'
_symmetry_Int_Tables_number 113
_refine_ls_R_factor_all 0.0281
loop_
_symmetry_equiv_pos_site_id
_symmetry_equiv_pos_as_xyz
1 '-y+1/2, -x+1/2, z'
2 'y, -x, -z'
3 'y+1/2, x+1/2, z'
4 '-y, x, -z'
5 'x+1/2, -y+1/2, -z'
6 '-x, -y, z'
7 '-x+1/2, y+1/2, -z'
8 'x, y, z'
loop_
_atom_type_symbol
_atom_type_oxidation_number
Sn0+ 0
Na0+ 0
loop_
_atom_site_label
_atom_site_type_symbol
_atom_site_symmetry_multiplicity
_atom_site_Wyckoff_symbol
_atom_site_fract_x
_atom_site_fract_y
_atom_site_fract_z
_atom_site_B_iso_or_equiv
_atom_site_occupancy
_atom_site_attached_hydrogens
Sn1 Sn0+ 2 a 0. 0. 0. 0.0241(2) 1 0
Sn2 Sn0+ 4 e 0.34285(7) 0.84285(7) 0.18250(7) 0.02349(19) 1 0
Sn3 Sn0+ 4 e 0.25218(9) 0.75218(9) 0.49765(9) 0.0272(2) 1 0
Na1 Na0+ 2 c 0. 0.5 0.2055(9) 0.070(3) 1 0
loop_
_atom_site_aniso_label
_atom_site_aniso_type_symbol
_atom_site_aniso_U_11
_atom_site_aniso_U_22
_atom_site_aniso_U_33
_atom_site_aniso_U_12
_atom_site_aniso_U_13
_atom_site_aniso_U_23
Sn1 Sn0+ 0.0219(3) 0.0219(3) 0.0284(5) 0. 0. 0.
Sn2 Sn0+ 0.0232(2) 0.0232(2) 0.0241(3) -0.0045(3) 0.00054(18) 0.00054(18)
Sn3 Sn0+ 0.0272(3) 0.0272(3) 0.0273(3) -0.0026(2) 0.00092(17) 0.00092(17)
Na1 Na0+ 0.084(5) 0.084(5) 0.042(4) -0.061(6) 0. 0.
