
#(C) 2017 by FIZ Karlsruhe - Leibniz Institute for Information Infrastructure.  All rights reserved.
data_408080-ICSD
_database_code_ICSD 408080
_audit_creation_date 1999-06-02
_audit_update_record 2013-02-01
_chemical_name_systematic 'Yttrium palladium silicide (1/1/1) - supercell'
_chemical_formula_structural 'Y Pd Si'
_chemical_formula_sum 'Pd1 Si1 Y1'
_chemical_name_structure_type YPdSi
_exptl_crystal_density_diffrn 6.66
_publ_section_title

;
The crystal structure of Y Pd Si, the isotypic compounds Ln Pd Si (Ln= Gd -
Lu), and their structural relation to some other equiatomic compounds of the
rare earth and transition metals with main group elements
;
loop_
_citation_id
_citation_journal_full
_citation_year
_citation_journal_volume
_citation_page_first
_citation_page_last
_citation_journal_id_ASTM
primary 'Zeitschrift fuer Anorganische und Allgemeine Chemie (1950) (DE)' 1998
624 425 432 ZAACAB
loop_
_publ_author_name
'Prots', Yu.M.'
'Poettgen, R.'
'Jeitschko, W.'
_cell_length_a 4.308(1)
_cell_length_b 13.912(1)
_cell_length_c 7.431(1)
_cell_angle_alpha 90.
_cell_angle_beta 90.
_cell_angle_gamma 90.
_cell_volume 445.36
_cell_formula_units_Z 8
_symmetry_space_group_name_H-M 'P m m n Z'
_symmetry_Int_Tables_number 59
_refine_ls_R_factor_all 0.024
loop_
_symmetry_equiv_pos_site_id
_symmetry_equiv_pos_as_xyz
1 'x+1/2, y+1/2, -z'
2 '-x, y+1/2, -z'
3 'x+1/2, -y, -z'
4 '-x, -y, -z'
5 '-x+1/2, -y+1/2, z'
6 'x, -y+1/2, z'
7 '-x+1/2, y, z'
8 'x, y, z'
loop_
_atom_type_symbol
_atom_type_oxidation_number
Y0+ 0
Pd0+ 0
Si0+ 0
loop_
_atom_site_label
_atom_site_type_symbol
_atom_site_symmetry_multiplicity
_atom_site_Wyckoff_symbol
_atom_site_fract_x
_atom_site_fract_y
_atom_site_fract_z
_atom_site_B_iso_or_equiv
_atom_site_occupancy
_atom_site_attached_hydrogens
Y1 Y0+ 4 e 0.25 0.00144(10) 0.7903(2) . 1. 0
Y2 Y0+ 2 b 0.25 0.75 0.7084(2) . 1. 0
Y3 Y0+ 2 a 0.25 0.25 0.7006(2) . 1. 0
Pd1 Pd0+ 4 e 0.25 0.14209(6) 0.07730(13) . 1. 0
Pd2 Pd0+ 4 e 0.25 0.59491(6) 0.41862(14) . 1. 0
Si1 Si0+ 4 e 0.25 0.1036(2) 0.4088(5) . 1. 0
Si2 Si0+ 4 e 0.25 0.6567(2) 0.0902(5) . 1. 0
loop_
_atom_site_aniso_label
_atom_site_aniso_type_symbol
_atom_site_aniso_U_11
_atom_site_aniso_U_22
_atom_site_aniso_U_33
_atom_site_aniso_U_12
_atom_site_aniso_U_13
_atom_site_aniso_U_23
Y1 Y0+ 0.0065(10) 0.0062(5) 0.0057(6) 0 0 -0.0007(4)
Y2 Y0+ 0.0054(11) 0.0065(8) 0.0068(7) 0 0 0
Y3 Y0+ 0.0069(11) 0.0050(8) 0.0059(8) 0 0 0
Pd1 Pd0+ 0.0057(6) 0.0071(4) 0.0063(4) 0 0 -0.0001(4)
Pd2 Pd0+ 0.0066(6) 0.0102(4) 0.0066(5) 0 0 -0.0006(4)
Si1 Si0+ 0.009(2) 0.009(2) 0.006(2) 0 0 -0.0004(12)
Si2 Si0+ 0.005(2) 0.007(2) 0.005(2) 0 0 -0.0005(13)
#End of TTdata_408080-ICSD