
#(C) 2017 by FIZ Karlsruhe - Leibniz Institute for Information Infrastructure.  All rights reserved.
data_408031-ICSD
_database_code_ICSD 408031
_audit_creation_date 1999-06-02
_audit_update_record 2010-02-01
_chemical_name_systematic 'Lanthanum silicide chloride (3/3/2)'
_chemical_formula_structural 'La3 Si3 Cl2'
_chemical_formula_sum 'Cl2 La3 Si3'
_chemical_name_structure_type La3Si3Cl2
_exptl_crystal_density_diffrn 4.78
_publ_section_title
'Zintl-Anionen des Siliciums in den Halogeniden La3 Cl2 Si3 und La6 Br3 Si7'
loop_
_citation_id
_citation_journal_full
_citation_year
_citation_journal_volume
_citation_page_first
_citation_page_last
_citation_journal_id_ASTM
primary 'Zeitschrift fuer Anorganische und Allgemeine Chemie (1950) (DE)' 1999
625 297 301 ZAACAB
loop_
_publ_author_name
'Mattausch, H.J.'
'Oeckler, O.'
'Simon, A.'
_cell_length_a 18.018(34)
_cell_length_b 4.206(4)
_cell_length_c 10.577(22)
_cell_angle_alpha 90.
_cell_angle_beta 97.93(16)
_cell_angle_gamma 90.
_cell_volume 793.9
_cell_formula_units_Z 4
_symmetry_space_group_name_H-M 'C 1 2/m 1'
_symmetry_Int_Tables_number 12
_refine_ls_R_factor_all 0.0578
loop_
_symmetry_equiv_pos_site_id
_symmetry_equiv_pos_as_xyz
1 '-x, y, -z'
2 '-x, -y, -z'
3 'x, -y, z'
4 'x, y, z'
5 '-x+1/2, y+1/2, -z'
6 '-x+1/2, -y+1/2, -z'
7 'x+1/2, -y+1/2, z'
8 'x+1/2, y+1/2, z'
loop_
_atom_type_symbol
_atom_type_oxidation_number
La0+ 0
Si0+ 0
Cl0+ 0
loop_
_atom_site_label
_atom_site_type_symbol
_atom_site_symmetry_multiplicity
_atom_site_Wyckoff_symbol
_atom_site_fract_x
_atom_site_fract_y
_atom_site_fract_z
_atom_site_B_iso_or_equiv
_atom_site_occupancy
_atom_site_attached_hydrogens
La1 La0+ 4 i 0.46470(3) 0 0.16968(5) . 1. 0
La2 La0+ 4 i 0.38373(3) 0 0.50903(5) . 1. 0
La3 La0+ 4 i 0.18089(3) 0.5 0.14846(5) . 1. 0
Si1 Si0+ 4 i 0.08900(14) 0 0.2775(2) . 1. 0
Si2 Si0+ 4 i 0.06457(13) 0 0.0497(2) . 1. 0
Si3 Si0+ 4 i -.01935(14) 0 0.3882(2) . 1. 0
Cl1 Cl0+ 4 i 0.27367(12) 0.5 0.3918(2) . 1. 0
Cl2 Cl0+ 4 i 0.29730(12) 0 0.1270(2) . 1. 0
loop_
_atom_site_aniso_label
_atom_site_aniso_type_symbol
_atom_site_aniso_U_11
_atom_site_aniso_U_22
_atom_site_aniso_U_33
_atom_site_aniso_U_12
_atom_site_aniso_U_13
_atom_site_aniso_U_23
La1 La0+ 0.0069(2) 0.0076(2) 0.0072(2) 0 0.00114(13) 0
La2 La0+ 0.0077(2) 0.0088(2) 0.0087(2) 0 0.00155(15) 0
La3 La0+ 0.0063(2) 0.0096(2) 0.0089(2) 0 0.00171(14) 0
Si1 Si0+ 0.0097(10) 0.0105(11) 0.0083(9) 0 0.0028(8) 0
Si2 Si0+ 0.0082(9) 0.0084(10) 0.0082(10) 0 0.0017(7) 0
Si3 Si0+ 0.0093(9) 0.0096(11) 0.0097(10) 0 0.0030(7) 0
Cl1 Cl0+ 0.0110(8) 0.0165(10) 0.0130(9) 0 -.0014(6) 0
Cl2 Cl0+ 0.0094(8) 0.0148(9) 0.0156(9) 0 0.0043(7) 0
#End of TTdata_408031-ICSD