
#(C) 2017 by FIZ Karlsruhe - Leibniz Institute for Information Infrastructure.  All rights reserved.
data_408069-ICSD
_database_code_ICSD 408069
_audit_creation_date 1999-06-02
_chemical_name_systematic 'Rubidium hexafluoroarsenate(V)'
_chemical_formula_structural 'Rb (As F6)'
_chemical_formula_sum 'As1 F6 Rb1'
_chemical_name_structure_type KOsF6
_exptl_crystal_density_diffrn 3.7
_publ_section_title

;
Rb As F6, Cs As F6 und Rb As F6: Kristallstrukturen, Thermische
Phasenumwandlungen und Schwingungsspektren
;
loop_
_citation_id
_citation_journal_full
_citation_year
_citation_journal_volume
_citation_page_first
_citation_page_last
_citation_journal_id_ASTM
primary 'Zeitschrift fuer Naturforschung, B: Chemical Sciences' 1998 53 75 80
ZNBSEN
loop_
_publ_author_name
'Loss, S.'
'Roehr, C.'
_cell_length_a 7.497(1)
_cell_length_b 7.497(1)
_cell_length_c 7.589(1)
_cell_angle_alpha 90.
_cell_angle_beta 90.
_cell_angle_gamma 120.
_cell_volume 369.39
_cell_formula_units_Z 3
_symmetry_space_group_name_H-M 'R -3 H'
_symmetry_Int_Tables_number 148
_refine_ls_R_factor_all 0.036
loop_
_symmetry_equiv_pos_site_id
_symmetry_equiv_pos_as_xyz
1 'x-y, x, -z'
2 'y, -x+y, -z'
3 '-x, -y, -z'
4 '-x+y, -x, z'
5 '-y, x-y, z'
6 'x, y, z'
7 'x-y+2/3, x+1/3, -z+1/3'
8 'y+2/3, -x+y+1/3, -z+1/3'
9 '-x+2/3, -y+1/3, -z+1/3'
10 '-x+y+2/3, -x+1/3, z+1/3'
11 '-y+2/3, x-y+1/3, z+1/3'
12 'x+2/3, y+1/3, z+1/3'
13 'x-y+1/3, x+2/3, -z+2/3'
14 'y+1/3, -x+y+2/3, -z+2/3'
15 '-x+1/3, -y+2/3, -z+2/3'
16 '-x+y+1/3, -x+2/3, z+2/3'
17 '-y+1/3, x-y+2/3, z+2/3'
18 'x+1/3, y+2/3, z+2/3'
loop_
_atom_type_symbol
_atom_type_oxidation_number
Rb1+ 1
As5+ 5
F1- -1
loop_
_atom_site_label
_atom_site_type_symbol
_atom_site_symmetry_multiplicity
_atom_site_Wyckoff_symbol
_atom_site_fract_x
_atom_site_fract_y
_atom_site_fract_z
_atom_site_B_iso_or_equiv
_atom_site_occupancy
_atom_site_attached_hydrogens
Rb1 Rb1+ 3 b 0 0 0.5 . 1. 0
As1 As5+ 3 a 0 0 0 . 1. 0
F1 F1- 18 f 0.2117(4) 0.1337(4) -.1319(3) . 1. 0
loop_
_atom_site_aniso_label
_atom_site_aniso_type_symbol
_atom_site_aniso_U_11
_atom_site_aniso_U_22
_atom_site_aniso_U_33
_atom_site_aniso_U_12
_atom_site_aniso_U_13
_atom_site_aniso_U_23
Rb1 Rb1+ 0.0284(4) 0.0284(4) 0.0321(5) 0.0142(2) 0 0
As1 As5+ 0.0157(4) 0.0157(4) 0.0265(4) 0.0078(2) 0 0
F1 F1- 0.028(1) 0.0374(13) 0.0514(13) 0.0116(9) 0.0139(9) 0.0098(10)
#End of TTdata_408069-ICSD