
#(C) 2017 by FIZ Karlsruhe - Leibniz Institute for Information Infrastructure.  All rights reserved.
data_408195-ICSD
_database_code_ICSD 408195
_audit_creation_date 1999-06-02
_audit_update_record 2002-04-01
_chemical_name_systematic 'Zirconium nickel antimonide'
_chemical_formula_structural 'Zr Ni Sb'
_chemical_formula_sum 'Ni1 Sb1 Zr1'
_chemical_name_structure_type TiNiSi-MgSrSi
_exptl_crystal_density_diffrn 8.57
_cell_measurement_temperature 295.
_publ_section_title

;
Die neuen Antimonide Zr Ni Sb und Hf Ni Sb: Synthese, Struktur und
Eigenschaften im Vergleich zu Zr Co Sb und Hf Co Sb.
;
loop_
_citation_id
_citation_journal_full
_citation_year
_citation_journal_volume
_citation_page_first
_citation_page_last
_citation_journal_id_ASTM
primary 'Zeitschrift fuer Anorganische und Allgemeine Chemie (1950) (DE)' 1998
624 1272 1278 ZAACAB
loop_
_publ_author_name
'Kleinke, H.'
_cell_length_a 6.721(2)
_cell_length_b 4.1587(9)
_cell_length_c 7.534(1)
_cell_angle_alpha 90.
_cell_angle_beta 90.
_cell_angle_gamma 90.
_cell_volume 210.58
_cell_formula_units_Z 4
_symmetry_space_group_name_H-M 'P n m a'
_symmetry_Int_Tables_number 62
_refine_ls_R_factor_all 0.029
loop_
_symmetry_equiv_pos_site_id
_symmetry_equiv_pos_as_xyz
1 'x+1/2, y, -z+1/2'
2 'x, -y+1/2, z'
3 '-x+1/2, y+1/2, z+1/2'
4 '-x, -y, -z'
5 '-x+1/2, -y, z+1/2'
6 '-x, y+1/2, -z'
7 'x+1/2, -y+1/2, -z+1/2'
8 'x, y, z'
loop_
_atom_type_symbol
_atom_type_oxidation_number
Sb0+ 0
Zr0+ 0
Ni0+ 0
loop_
_atom_site_label
_atom_site_type_symbol
_atom_site_symmetry_multiplicity
_atom_site_Wyckoff_symbol
_atom_site_fract_x
_atom_site_fract_y
_atom_site_fract_z
_atom_site_B_iso_or_equiv
_atom_site_occupancy
_atom_site_attached_hydrogens
Sb1 Sb0+ 4 c 0.28712(5) 0.25 0.09421(5) . 1. 0
Zr1 Zr0+ 4 c 0.00203(7) 0.25 0.80274(7) . 1. 0
Ni1 Ni0+ 4 c 0.1763(1) 0.25 0.41637(10) . 1. 0
loop_
_atom_site_aniso_label
_atom_site_aniso_type_symbol
_atom_site_aniso_U_11
_atom_site_aniso_U_22
_atom_site_aniso_U_33
_atom_site_aniso_U_12
_atom_site_aniso_U_13
_atom_site_aniso_U_23
Sb1 Sb0+ 0.0080(1) 0.0074(1) 0.0091(2) 0 -0.0007(1) 0
Zr1 Zr0+ 0.0076(2) 0.0085(2) 0.0087(2) 0 0.0004(2) 0
Ni1 Ni0+ 0.0149(3) 0.0108(3) 0.0104(3) 0 -0.0011(3) 0
#End of TTdata_408195-ICSD