
#(C) 2017 by FIZ Karlsruhe - Leibniz Institute for Information Infrastructure.  All rights reserved.
data_40878-ICSD
_database_code_ICSD 40878
_audit_creation_date 2000-07-15
_chemical_name_systematic 'Cesium pentaindium sulfide'
_chemical_formula_structural 'Cs In5 S8'
_chemical_formula_sum 'Cs1 In5 S8'
_chemical_name_structure_type Cr5CsS8
_exptl_crystal_density_diffrn 4.76
_publ_section_title

;
Splitpositionen fuer Alkalimetallkationen in den Thioindaten M In5 S8 (M= K,
Rb, Cs)?
;
loop_
_citation_id
_citation_journal_full
_citation_year
_citation_journal_volume
_citation_page_first
_citation_page_last
_citation_journal_id_ASTM
primary

;
Zeitschrift fuer Kristallographie, Kristallgeometrie, Kristallphysik,
Kristallchemie (-144,1977)
; 1986 177 307 314 ZEKGAX
loop_
_publ_author_name
'Deiseroth, H.J.'
_cell_length_a 19.116(7)
_cell_length_b 3.864(2)
_cell_length_c 9.321(4)
_cell_angle_alpha 90.
_cell_angle_beta 102.20(3)
_cell_angle_gamma 90.
_cell_volume 672.94
_cell_formula_units_Z 2
_symmetry_space_group_name_H-M 'C 1 2/m 1'
_symmetry_Int_Tables_number 12
_refine_ls_R_factor_all 0.0443
loop_
_symmetry_equiv_pos_site_id
_symmetry_equiv_pos_as_xyz
1 '-x, y, -z'
2 '-x, -y, -z'
3 'x, -y, z'
4 'x, y, z'
5 '-x+1/2, y+1/2, -z'
6 '-x+1/2, -y+1/2, -z'
7 'x+1/2, -y+1/2, z'
8 'x+1/2, y+1/2, z'
loop_
_atom_type_symbol
_atom_type_oxidation_number
In3+ 3
S2- -2
Cs1+ 1
loop_
_atom_site_label
_atom_site_type_symbol
_atom_site_symmetry_multiplicity
_atom_site_Wyckoff_symbol
_atom_site_fract_x
_atom_site_fract_y
_atom_site_fract_z
_atom_site_B_iso_or_equiv
_atom_site_occupancy
_atom_site_attached_hydrogens
In1 In3+ 2 a 0 0 0 . 1. 0
In2 In3+ 4 i 0.20965(7) 0.5 0.34088(15) . 1. 0
In3 In3+ 4 i 0.34937(7) 0 0.06814(14) . 1. 0
S1 S2- 4 i 0.23560(23) 0 0.15227(51) . 1. 0
S2 S2- 4 i 0.16707(25) 0 0.48428(53) . 1. 0
S3 S2- 4 i 0.08146(24) 0.5 0.13846(53) . 1. 0
S4 S2- 4 i 0.42126(24) 0.5 0.19628(52) . 1. 0
Cs1 Cs1+ 2 d 0.5 0 0.5 . 1. 0
loop_
_atom_site_aniso_label
_atom_site_aniso_type_symbol
_atom_site_aniso_U_11
_atom_site_aniso_U_22
_atom_site_aniso_U_33
_atom_site_aniso_U_12
_atom_site_aniso_U_13
_atom_site_aniso_U_23
In1 In3+ 0.0238(9) 0.0197(9) 0.0334(10) 0 0.0072(7) 0
In2 In3+ 0.0335(7) 0.0198(6) 0.0275(3) 0 0.0026(5) 0
In3 In3+ 0.0251(6) 0.0250(7) 0.0370(8) 0 0.0103(5) 0
S1 S2- 0.0221(20) 0.0240(23) 0.0277(22) 0 0.0037(17) 0
S2 S2- 0.0279(22) 0.0245(23) 0.0311(23) 0 0.0074(18) 0
S3 S2- 0.0227(19) 0.0196(22) 0.0298(22) 0 0.0037(17) 0
S4 S2- 0.0248(21) 0.0258(24) 0.0295(23) 0 0.0048(17) 0
Cs1 Cs1+ 0.053(1) 0.028(1) 0.041(1) 0 -.0054(9) 0
#End of TTdata_40878-ICSD