
#(C) 2017 by FIZ Karlsruhe - Leibniz Institute for Information Infrastructure.  All rights reserved.
data_409188-ICSD
_database_code_ICSD 409188
_audit_creation_date 1999-06-02
_chemical_name_systematic 'Yttrium phosphide (1/5)'
_chemical_formula_structural 'Y P5'
_chemical_formula_sum 'P5 Y1'
_chemical_name_structure_type GdP5
_exptl_crystal_density_diffrn 3.37
_publ_section_title 'Crystal structure of yttrium pentaphosphide, Y P5'
loop_
_citation_id
_citation_journal_full
_citation_year
_citation_journal_volume
_citation_page_first
_citation_page_last
_citation_journal_id_ASTM
primary 'Zeitschrift fuer Kristallographie - New Crystal Structures' 1998 213
459 459 ZKNSFT
loop_
_publ_author_name
'von Schnering, H.G.'
'Vu, D.'
'Peters, K.'
_cell_length_a 4.911(1)
_cell_length_b 9.384(2)
_cell_length_c 5.344(1)
_cell_angle_alpha 90.
_cell_angle_beta 102.50(2)
_cell_angle_gamma 90.
_cell_volume 240.44
_cell_formula_units_Z 2
_symmetry_space_group_name_H-M 'P 1 21/m 1'
_symmetry_Int_Tables_number 11
_refine_ls_R_factor_all 0.023
loop_
_symmetry_equiv_pos_site_id
_symmetry_equiv_pos_as_xyz
1 'x, -y+1/2, z'
2 '-x, -y, -z'
3 '-x, y+1/2, -z'
4 'x, y, z'
loop_
_atom_type_symbol
_atom_type_oxidation_number
Y3+ 3
P0+ -0.6
loop_
_atom_site_label
_atom_site_type_symbol
_atom_site_symmetry_multiplicity
_atom_site_Wyckoff_symbol
_atom_site_fract_x
_atom_site_fract_y
_atom_site_fract_z
_atom_site_B_iso_or_equiv
_atom_site_occupancy
_atom_site_attached_hydrogens
Y1 Y3+ 2 e 0.0064(1) 0.25 0.3497(1) . 1. 0
P1 P0+ 4 f 0.3825(2) 0.5920(1) 0.0431(2) . 1. 0
P2 P0+ 4 f 0.2853(2) 0.5296(1) 0.4039(2) . 1. 0
P3 P0+ 2 e 0.2772(3) 0.25 0.8952(3) . 1. 0
loop_
_atom_site_aniso_label
_atom_site_aniso_type_symbol
_atom_site_aniso_U_11
_atom_site_aniso_U_22
_atom_site_aniso_U_33
_atom_site_aniso_U_12
_atom_site_aniso_U_13
_atom_site_aniso_U_23
Y1 Y3+ 0.0105(2) 0.0083(2) 0.0091(2) 0 0.0017(2) 0
P1 P0+ 0.0113(4) 0.0094(4) 0.0106(4) 0.0005(3) 0.0019(3) 0.0005(3)
P2 P0+ 0.0124(4) 0.0112(4) 0.0123(4) -.0002(3) 0.0045(3) 0.0000(3)
P3 P0+ 0.0121(6) 0.0102(6) 0.0131(6) 0 0.0028(5) 0
#End of TTdata_409188-ICSD