
#(C) 2017 by FIZ Karlsruhe - Leibniz Institute for Information Infrastructure.  All rights reserved.
data_409176-ICSD
_database_code_ICSD 409176
_audit_creation_date 1999-06-02
_chemical_name_systematic 'Tetracesium hexathiodisilicate'
_chemical_formula_structural 'Cs4 (Si2 S6)'
_chemical_formula_sum 'Cs4 S6 Si2'
_exptl_crystal_density_diffrn 3.3
_publ_section_title
'Crystal structure of tetracesium hexathiodisilicate, Cs4 Si2 S6'
loop_
_citation_id
_citation_journal_full
_citation_year
_citation_journal_volume
_citation_page_first
_citation_page_last
_citation_journal_id_ASTM
primary 'Zeitschrift fuer Kristallographie - New Crystal Structures' 1998 213
454 454 ZKNSFT
loop_
_publ_author_name
'Feldmann, C.'
'von Schnering, H.G.'
'Grin', Yu.'
_cell_length_a 9.869(3)
_cell_length_b 7.138(3)
_cell_length_c 11.323(6)
_cell_angle_alpha 90.
_cell_angle_beta 100.12(4)
_cell_angle_gamma 90.
_cell_volume 785.24
_cell_formula_units_Z 2
_symmetry_space_group_name_H-M 'I 1 2/m 1'
_symmetry_Int_Tables_number 12
_refine_ls_R_factor_all 0.0253
loop_
_symmetry_equiv_pos_site_id
_symmetry_equiv_pos_as_xyz
1 'x, -y, z'
2 '-x, -y, -z'
3 '-x, y, -z'
4 'x, y, z'
5 'x+1/2, -y+1/2, z+1/2'
6 '-x+1/2, -y+1/2, -z+1/2'
7 '-x+1/2, y+1/2, -z+1/2'
8 'x+1/2, y+1/2, z+1/2'
loop_
_atom_type_symbol
_atom_type_oxidation_number
Cs1+ 1
Si4+ 4
S2- -2
loop_
_atom_site_label
_atom_site_type_symbol
_atom_site_symmetry_multiplicity
_atom_site_Wyckoff_symbol
_atom_site_fract_x
_atom_site_fract_y
_atom_site_fract_z
_atom_site_B_iso_or_equiv
_atom_site_occupancy
_atom_site_attached_hydrogens
Cs1 Cs1+ 4 i 0.22088(4) 0 0.07788(4) . 1. 0
Cs2 Cs1+ 4 i 0.61253(4) 0 0.30013(4) . 1. 0
Si1 Si4+ 4 i 0.06179(2) 0 0.38789(1) . 1. 0
S1 S2- 4 h 0 0.2245(2) 0.5 . 1. 0
S2 S2- 4 i 0.27146(1) 0 0.39080(1) . 1. 0
S3 S2- 4 i 0.93968(2) 0 0.22009(1) . 1. 0
loop_
_atom_site_aniso_label
_atom_site_aniso_type_symbol
_atom_site_aniso_U_11
_atom_site_aniso_U_22
_atom_site_aniso_U_33
_atom_site_aniso_U_12
_atom_site_aniso_U_13
_atom_site_aniso_U_23
Cs1 Cs1+ 0.0282(2) 0.0267(2) 0.0253(2) 0 0.00605(1) 0
Cs2 Cs1+ 0.0316(2) 0.0316(2) 0.0342(2) 0 0.00436(2) 0
Si1 Si4+ 0.0184(6) 0.0164(6) 0.0191(6) 0 0.0039(5) 0
S1 S2- 0.0396(8) 0.0156(6) 0.0321(7) 0 0.0180(6) 0
S2 S2- 0.0178(6) 0.0284(7) 0.0272(6) 0 0.0023(5) 0
S3 S2- 0.0218(6) 0.0366(8) 0.0236(7) 0 -.0015(5) 0
#End of TTdata_409176-ICSD