
#(C) 2017 by FIZ Karlsruhe - Leibniz Institute for Information Infrastructure.  All rights reserved.
data_409294-ICSD
_database_code_ICSD 409294
_audit_creation_date 1999-06-02
_chemical_name_systematic 'Dicesium triselenozirconate(IV)'
_chemical_formula_structural 'Cs2 (Zr Se3)'
_chemical_formula_sum 'Cs2 Se3 Zr1'
_chemical_name_structure_type CsCu2Cl3
_exptl_crystal_density_diffrn 4.44
_cell_measurement_temperature 294.
_publ_section_title
'Crystal structure of dicesium triselenozirconate(IV), Cs2 Zr Se3'
loop_
_citation_id
_citation_journal_full
_citation_year
_citation_journal_volume
_citation_page_first
_citation_page_last
_citation_journal_id_ASTM
primary 'Zeitschrift fuer Kristallographie - New Crystal Structures' 1998 213
694 694 ZKNSFT
loop_
_publ_author_name
'Klepp, K.O.'
'Kolb, A.'
_cell_length_a 13.077(4)
_cell_length_b 9.510(1)
_cell_length_c 7.137(1)
_cell_angle_alpha 90.
_cell_angle_beta 90.
_cell_angle_gamma 90.
_cell_volume 887.57
_cell_formula_units_Z 4
_symmetry_space_group_name_H-M 'C m c m'
_symmetry_Int_Tables_number 63
_refine_ls_R_factor_all 0.018
loop_
_symmetry_equiv_pos_site_id
_symmetry_equiv_pos_as_xyz
1 '-x, y, -z+1/2'
2 '-x, -y, z+1/2'
3 '-x, y, z'
4 '-x, -y, -z'
5 'x, -y, z+1/2'
6 'x, y, -z+1/2'
7 'x, -y, -z'
8 'x, y, z'
9 '-x+1/2, y+1/2, -z+1/2'
10 '-x+1/2, -y+1/2, z+1/2'
11 '-x+1/2, y+1/2, z'
12 '-x+1/2, -y+1/2, -z'
13 'x+1/2, -y+1/2, z+1/2'
14 'x+1/2, y+1/2, -z+1/2'
15 'x+1/2, -y+1/2, -z'
16 'x+1/2, y+1/2, z'
loop_
_atom_type_symbol
_atom_type_oxidation_number
Cs1+ 1
Zr4+ 4
Se2- -2
loop_
_atom_site_label
_atom_site_type_symbol
_atom_site_symmetry_multiplicity
_atom_site_Wyckoff_symbol
_atom_site_fract_x
_atom_site_fract_y
_atom_site_fract_z
_atom_site_B_iso_or_equiv
_atom_site_occupancy
_atom_site_attached_hydrogens
Cs1 Cs1+ 8 g 0.34472(4) 0.16310(5) 0.25 . 1. 0
Zr1 Zr4+ 4 c 0 0.08174(9) 0.25 . 1. 0
Se1 Se2- 8 e 0.13730(5) 0 0 . 1. 0
Se2 Se2- 4 c 0 0.3411(1) 0.25 . 1. 0
loop_
_atom_site_aniso_label
_atom_site_aniso_type_symbol
_atom_site_aniso_U_11
_atom_site_aniso_U_22
_atom_site_aniso_U_33
_atom_site_aniso_U_12
_atom_site_aniso_U_13
_atom_site_aniso_U_23
Cs1 Cs1+ 0.0355(2) 0.0243(2) 0.0409(2) -.0086(2) 0 0
Zr1 Zr4+ 0.0217(4) 0.0101(3) 0.0148(4) 0 0 0
Se1 Se2- 0.0193(3) 0.0316(3) 0.0165(3) 0 0 -.0043(3)
Se2 Se2- 0.0797(9) 0.0092(4) 0.0480(7) 0 0 0
#End of TTdata_409294-ICSD