
#(C) 2017 by FIZ Karlsruhe - Leibniz Institute for Information Infrastructure.  All rights reserved.
data_409452-ICSD
_database_code_ICSD 409452
_audit_creation_date 2002-04-01
_chemical_name_systematic 'Diindium disilicate'
_chemical_formula_structural 'In2 (Si2 O7)'
_chemical_formula_sum 'In2 O7 Si2'
_chemical_name_structure_type Sc2Si2O7
_exptl_crystal_density_diffrn 5.05
_cell_measurement_temperature 300.
_publ_section_title
'Refinement of the crystal structure of diindium disilicate, In2 Si2 O7'
loop_
_citation_id
_citation_journal_full
_citation_year
_citation_journal_volume
_citation_page_first
_citation_page_last
_citation_journal_id_ASTM
primary 'Zeitschrift fuer Kristallographie - New Crystal Structures' 2000 215 15
16 ZKNSFT
loop_
_publ_author_name
'Patzke, G.R.'
'Wartchow, R.'
'Binnewies, M.'
_cell_length_a 6.626(1)
_cell_length_b 8.604(1)
_cell_length_c 4.707(1)
_cell_angle_alpha 90.
_cell_angle_beta 102.94(2)
_cell_angle_gamma 90.
_cell_volume 261.53
_cell_formula_units_Z 2
_symmetry_space_group_name_H-M 'C 1 2/m 1'
_symmetry_Int_Tables_number 12
_refine_ls_R_factor_all 0.0255
loop_
_symmetry_equiv_pos_site_id
_symmetry_equiv_pos_as_xyz
1 '-x, y, -z'
2 '-x, -y, -z'
3 'x, -y, z'
4 'x, y, z'
5 '-x+1/2, y+1/2, -z'
6 '-x+1/2, -y+1/2, -z'
7 'x+1/2, -y+1/2, z'
8 'x+1/2, y+1/2, z'
loop_
_atom_type_symbol
_atom_type_oxidation_number
In3+ 3
Si4+ 4
O2- -2
loop_
_atom_site_label
_atom_site_type_symbol
_atom_site_symmetry_multiplicity
_atom_site_Wyckoff_symbol
_atom_site_fract_x
_atom_site_fract_y
_atom_site_fract_z
_atom_site_B_iso_or_equiv
_atom_site_occupancy
_atom_site_attached_hydrogens
In1 In3+ 4 g 0 0.30771(4) 0 . 1. 0
Si1 Si4+ 4 i 0.2203(2) 0 0.4101(3) . 1. 0
O1 O2- 2 c 0 0 0.5 . 1. 0
O2 O2- 4 i 0.3902(6) 0 0.7177(9) . 1. 0
O3 O2- 8 j 0.2348(5) 0.1564(4) 0.2183(7) . 1. 0
loop_
_atom_site_aniso_label
_atom_site_aniso_type_symbol
_atom_site_aniso_U_11
_atom_site_aniso_U_22
_atom_site_aniso_U_33
_atom_site_aniso_U_12
_atom_site_aniso_U_13
_atom_site_aniso_U_23
In1 In3+ 0.0059(3) 0.0040(3) 0.0044(3) 0 0.0008(2) 0
Si1 Si4+ 0.0049(7) 0.0048(8) 0.0016(8) 0 0.0007(5) 0
O1 O2- 0.007(3) 0.020(4) 0.015(3) 0 0.005(2) 0
O2 O2- 0.009(2) 0.007(2) 0.003(2) 0 -.001(2) 0
O3 O2- 0.0076(13) 0.0058(14) 0.0057(14) 0.0020(12) 0.0024(11) 0.0034(13)
#End of TTdata_409452-ICSD