
data_409451-ICSD
_database_code_ICSD 409451
_audit_creation_date 2002-04-01
_chemical_name_systematic 'Cobalt chromium germanide (1/1/1)'
_chemical_formula_structural 'Co Cr Ge'
_chemical_formula_sum 'Co1 Cr1 Ge1'
_chemical_name_structure_type InNi2
_exptl_crystal_density_diffrn 8.17
_cell_measurement_temperature 300.
_cell_length_a 4.092(1)
_cell_length_b 4.092(1)
_cell_length_c 5.145(2)
_cell_angle_alpha 90.
_cell_angle_beta 90.
_cell_angle_gamma 120.
_cell_volume 74.61
_cell_formula_units_Z 2
_symmetry_space_group_name_H-M 'P 63/m m c'
_symmetry_Int_Tables_number 194
_refine_ls_R_factor_all 0.049
loop_
_symmetry_equiv_pos_site_id
_symmetry_equiv_pos_as_xyz
1 'x, x-y, -z+1/2'
2 '-x+y, y, -z+1/2'
3 '-y, -x, -z+1/2'
4 '-x+y, -x, -z+1/2'
5 '-y, x-y, -z+1/2'
6 'x, y, -z+1/2'
7 '-x, -x+y, z+1/2'
8 'x-y, -y, z+1/2'
9 'y, x, z+1/2'
10 'x-y, x, z+1/2'
11 'y, -x+y, z+1/2'
12 '-x, -y, z+1/2'
13 '-x, -x+y, -z'
14 'x-y, -y, -z'
15 'y, x, -z'
16 'x-y, x, -z'
17 'y, -x+y, -z'
18 '-x, -y, -z'
19 'x, x-y, z'
20 '-x+y, y, z'
21 '-y, -x, z'
22 '-x+y, -x, z'
23 '-y, x-y, z'
24 'x, y, z'
loop_
_atom_type_symbol
_atom_type_oxidation_number
Ge4- -4
Co1+ 1
Cr3+ 3
loop_
_atom_site_label
_atom_site_type_symbol
_atom_site_symmetry_multiplicity
_atom_site_Wyckoff_symbol
_atom_site_fract_x
_atom_site_fract_y
_atom_site_fract_z
_atom_site_B_iso_or_equiv
_atom_site_occupancy
_atom_site_attached_hydrogens
Ge1 Ge4- 2 d 0.3333 0.6667 0.75 0.013(2) 1. 0
Co1 Co1+ 2 c 0.3333 0.6667 0.25 0.018(2) 1. 0
Cr1 Cr3+ 2 a 0 0 0 0.0065(13) 1. 0
