
#(C) 2017 by FIZ Karlsruhe - Leibniz Institute for Information Infrastructure.  All rights reserved.
data_409575-ICSD
_database_code_ICSD 409575
_audit_creation_date 2002-10-01
_chemical_name_systematic 'Barium dimagnesium dilithium silicide'
_chemical_formula_structural 'Ba Mg2 Li2 Si2'
_chemical_formula_sum 'Ba1 Li2 Mg2 Si2'
_chemical_name_structure_type Cu4NaAs2
_exptl_crystal_density_diffrn 2.7
_cell_measurement_temperature 298.
_publ_section_title

;
Crystal structure of barium dimagnesium dilithium disilicide Ba Mg2 Li2 Si2
and barium dimagnesium dilithium digermanide Ba Mg2 Li2 Ge2.
;
loop_
_citation_id
_citation_journal_full
_citation_year
_citation_journal_volume
_citation_page_first
_citation_page_last
_citation_journal_id_ASTM
primary 'Zeitschrift fuer Kristallographie - New Crystal Structures' 2001 216
503 504 ZKNSFT
loop_
_publ_author_name
'Zuercher, F.'
'Wengert, S.'
'Nesper, R.'
_cell_length_a 4.578(2)
_cell_length_b 4.578(2)
_cell_length_c 26.052(13)
_cell_angle_alpha 90.
_cell_angle_beta 90.
_cell_angle_gamma 120.
_cell_volume 472.85
_cell_formula_units_Z 3
_symmetry_space_group_name_H-M 'R -3 m H'
_symmetry_Int_Tables_number 166
_refine_ls_R_factor_all 0.0093
loop_
_symmetry_equiv_pos_site_id
_symmetry_equiv_pos_as_xyz
1 'x-y, -y, -z'
2 '-x, -x+y, -z'
3 'y, x, -z'
4 'x-y, x, -z'
5 'y, -x+y, -z'
6 '-x, -y, -z'
7 '-x+y, y, z'
8 'x, x-y, z'
9 '-y, -x, z'
10 '-x+y, -x, z'
11 '-y, x-y, z'
12 'x, y, z'
13 'x-y+2/3, -y+1/3, -z+1/3'
14 '-x+2/3, -x+y+1/3, -z+1/3'
15 'y+2/3, x+1/3, -z+1/3'
16 'x-y+2/3, x+1/3, -z+1/3'
17 'y+2/3, -x+y+1/3, -z+1/3'
18 '-x+2/3, -y+1/3, -z+1/3'
19 '-x+y+2/3, y+1/3, z+1/3'
20 'x+2/3, x-y+1/3, z+1/3'
21 '-y+2/3, -x+1/3, z+1/3'
22 '-x+y+2/3, -x+1/3, z+1/3'
23 '-y+2/3, x-y+1/3, z+1/3'
24 'x+2/3, y+1/3, z+1/3'
25 'x-y+1/3, -y+2/3, -z+2/3'
26 '-x+1/3, -x+y+2/3, -z+2/3'
27 'y+1/3, x+2/3, -z+2/3'
28 'x-y+1/3, x+2/3, -z+2/3'
29 'y+1/3, -x+y+2/3, -z+2/3'
30 '-x+1/3, -y+2/3, -z+2/3'
31 '-x+y+1/3, y+2/3, z+2/3'
32 'x+1/3, x-y+2/3, z+2/3'
33 '-y+1/3, -x+2/3, z+2/3'
34 '-x+y+1/3, -x+2/3, z+2/3'
35 '-y+1/3, x-y+2/3, z+2/3'
36 'x+1/3, y+2/3, z+2/3'
loop_
_atom_type_symbol
_atom_type_oxidation_number
Ba2+ 2
Mg2+ 2
Li1+ 1
Si4- -4
loop_
_atom_site_label
_atom_site_type_symbol
_atom_site_symmetry_multiplicity
_atom_site_Wyckoff_symbol
_atom_site_fract_x
_atom_site_fract_y
_atom_site_fract_z
_atom_site_B_iso_or_equiv
_atom_site_occupancy
_atom_site_attached_hydrogens
Ba1 Ba2+ 3 a 0 0 0 . 1. 0
Mg1 Mg2+ 6 c 0 0 0.86439(3) . 1. 0
Li1 Li1+ 6 c 0 0 0.42941(16) . 1. 0
Si1 Si4- 6 c 0 0 0.757900(18) . 1. 0
loop_
_atom_site_aniso_label
_atom_site_aniso_type_symbol
_atom_site_aniso_U_11
_atom_site_aniso_U_22
_atom_site_aniso_U_33
_atom_site_aniso_U_12
_atom_site_aniso_U_13
_atom_site_aniso_U_23
Ba1 Ba2+ 0.01553(7) 0.01553(7) 0.01146(8) 0.00777(3) 0 0
Mg1 Mg2+ 0.01375(16) 0.01375(16) 0.0129(3) 0.00688(8) 0 0
Li1 Li1+ 0.0148(9) 0.0148(9) 0.037(2) 0.0074(5) 0 0
Si1 Si4- 0.00981(11) 0.00981(11) 0.01178(18) 0.00491(6) 0 0
#End of TTdata_409575-ICSD