
#(C) 2017 by FIZ Karlsruhe - Leibniz Institute for Information Infrastructure.  All rights reserved.
data_409646-ICSD
_database_code_ICSD 409646
_audit_creation_date 2003-10-01
_chemical_name_systematic 'Rubidium phyllo-dithiotricuprate(I)'
_chemical_formula_structural 'Rb (Cu3 S2)'
_chemical_formula_sum 'Cu3 Rb1 S2'
_chemical_name_structure_type Ag3CsS2
_exptl_crystal_density_diffrn 5.
_cell_measurement_temperature 294.
_publ_section_title 'Crystal structure of rubidium dithiotricuprate, Rb Cu3 S2'
loop_
_citation_id
_citation_journal_full
_citation_year
_citation_journal_volume
_citation_page_first
_citation_page_last
_citation_journal_id_ASTM
primary 'Zeitschrift fuer Kristallographie - New Crystal Structures' 2002 217
474 474 ZKNSFT
loop_
_publ_author_name
'Klepp, K.O.'
'Sing, M.'
_cell_length_a 14.813(8)
_cell_length_b 3.941(2)
_cell_length_c 8.364(5)
_cell_angle_alpha 90.
_cell_angle_beta 112.23(2)
_cell_angle_gamma 90.
_cell_volume 451.98
_cell_formula_units_Z 4
_symmetry_space_group_name_H-M 'C 1 2/m 1'
_symmetry_Int_Tables_number 12
_refine_ls_R_factor_all 0.035
loop_
_symmetry_equiv_pos_site_id
_symmetry_equiv_pos_as_xyz
1 '-x, y, -z'
2 '-x, -y, -z'
3 'x, -y, z'
4 'x, y, z'
5 '-x+1/2, y+1/2, -z'
6 '-x+1/2, -y+1/2, -z'
7 'x+1/2, -y+1/2, z'
8 'x+1/2, y+1/2, z'
loop_
_atom_type_symbol
_atom_type_oxidation_number
Rb1+ 1
Cu1+ 1
S2- -2
loop_
_atom_site_label
_atom_site_type_symbol
_atom_site_symmetry_multiplicity
_atom_site_Wyckoff_symbol
_atom_site_fract_x
_atom_site_fract_y
_atom_site_fract_z
_atom_site_B_iso_or_equiv
_atom_site_occupancy
_atom_site_attached_hydrogens
Rb1 Rb1+ 4 i 0.1354(1) 0 0.0426(2) 0.0192(3) 1. 0
Cu1 Cu1+ 4 i 0.5942(1) 0 0.6377(2) 0.0231(5) 1. 0
Cu2 Cu1+ 4 i 0.6890(1) 0 0.4295(2) 0.0319(6) 1. 0
Cu3 Cu1+ 4 i 0.0609(1) 0 0.4032(2) 0.0227(5) 1. 0
S1 S2- 4 i 0.4770(2) 0 0.7515(4) 0.0139(9) 1. 0
S2 S2- 4 i 0.1921(2) 0 0.6753(4) 0.0173(9) 1. 0
loop_
_atom_site_aniso_label
_atom_site_aniso_type_symbol
_atom_site_aniso_U_11
_atom_site_aniso_U_22
_atom_site_aniso_U_33
_atom_site_aniso_U_12
_atom_site_aniso_U_13
_atom_site_aniso_U_23
Rb1 Rb1+ 0.0154(5) 0.0135(7) 0.0211(6) 0 -0.0016(4) 0
Cu1 Cu1+ 0.0202(7) 0.019(1) 0.0272(8) 0 0.0059(6) 0
Cu2 Cu1+ 0.0157(7) 0.040(1) 0.0384(9) 0 0.0078(6) 0
Cu3 Cu1+ 0.0289(8) 0.0111(9) 0.0225(8) 0 0.0035(6) 0
S1 S2- 0.011(1) 0.008(2) 0.017(1) 0 -0.001(1) 0
S2 S2- 0.012(1) 0.014(2) 0.018(2) 0 -0.003(1) 0
#End of TTdata_409646-ICSD