
#(C) 2017 by FIZ Karlsruhe - Leibniz Institute for Information Infrastructure.  All rights reserved.
data_409729-ICSD
_database_code_ICSD 409729
_audit_creation_date 2004-10-01
_audit_update_record 2008-02-01
_chemical_name_systematic 'Tetrarubidium hexathiodigermanate(IV)'
_chemical_formula_structural 'Rb4 (Ge2 S6)'
_chemical_formula_sum 'Ge2 Rb4 S6'
_chemical_name_structure_type Rb4Si2S6
_exptl_crystal_density_diffrn 3.09
_cell_measurement_temperature 296.
_publ_section_title
'Crystal structure of tetrarubidium hexathiodigermanate(IV), Rb4 Ge2 S6'
loop_
_citation_id
_citation_journal_full
_citation_year
_citation_journal_volume
_citation_page_first
_citation_page_last
_citation_journal_id_ASTM
primary 'Zeitschrift fuer Kristallographie - New Crystal Structures' 2003 218
387 388 ZKNSFT
loop_
_publ_author_name
'Preishuber-Pfluegl, H.'
'Klepp, K.O.'
_cell_length_a 13.43(5)
_cell_length_b 6.898(3)
_cell_length_c 11.15(3)
_cell_angle_alpha 90.
_cell_angle_beta 135.06(9)
_cell_angle_gamma 90.
_cell_volume 729.63
_cell_formula_units_Z 2
_symmetry_space_group_name_H-M 'C 1 2/m 1'
_symmetry_Int_Tables_number 12
_refine_ls_R_factor_all 0.043
loop_
_symmetry_equiv_pos_site_id
_symmetry_equiv_pos_as_xyz
1 '-x, y, -z'
2 '-x, -y, -z'
3 'x, -y, z'
4 'x, y, z'
5 '-x+1/2, y+1/2, -z'
6 '-x+1/2, -y+1/2, -z'
7 'x+1/2, -y+1/2, z'
8 'x+1/2, y+1/2, z'
loop_
_atom_type_symbol
_atom_type_oxidation_number
Rb1+ 1
Ge4+ 4
S2- -2
loop_
_atom_site_label
_atom_site_type_symbol
_atom_site_symmetry_multiplicity
_atom_site_Wyckoff_symbol
_atom_site_fract_x
_atom_site_fract_y
_atom_site_fract_z
_atom_site_B_iso_or_equiv
_atom_site_occupancy
_atom_site_attached_hydrogens
Rb1 Rb1+ 4 i -.12227(10) 0 0.18612(11) 0.0336(2) 1. 0
Rb2 Rb1+ 4 i 0.28174(9) 0 0.3629(1) 0.0266(2) 1. 0
Ge1 Ge4+ 4 i 0.43522(8) 0 0.81595(9) 0.0172(2) 1. 0
S1 S2- 4 g 0.5 0.2426(3) 0 0.0274(4) 1. 0
S2 S2- 4 i 0.5697(2) 0 0.7754(3) 0.0293(5) 1. 0
S3 S2- 4 i 0.2107(2) 0 0.5969(2) 0.0250(5) 1. 0
loop_
_atom_site_aniso_label
_atom_site_aniso_type_symbol
_atom_site_aniso_U_11
_atom_site_aniso_U_22
_atom_site_aniso_U_33
_atom_site_aniso_U_12
_atom_site_aniso_U_13
_atom_site_aniso_U_23
Rb1 Rb1+ 0.0310(5) 0.0418(5) 0.0206(4) 0 0.0156(4) 0
Rb2 Rb1+ 0.0274(4) 0.0361(5) 0.0144(4) 0 0.0141(3) 0
Ge1 Ge4+ 0.0170(4) 0.0237(4) 0.0071(4) 0 0.0071(3) 0
S1 S2- 0.0374(11) 0.0213(8) 0.0116(8) 0 0.0131(8) 0
S2 S2- 0.0217(10) 0.0481(13) 0.0186(10) 0 0.0144(9) 0
S3 S2- 0.0165(9) 0.0379(11) 0.0114(9) 0 0.0066(8) 0
#End of TTdata_409729-ICSD