
data_409824-ICSD
_database_code_ICSD 409824
_audit_creation_date 2006-10-01
_chemical_name_systematic 'Trimagnesium palladium'
_chemical_formula_structural 'Mg3 Pd'
_chemical_formula_sum 'Mg3 Pd1'
_chemical_name_structure_type LaF3(P63mc)
_exptl_crystal_density_diffrn 3.84
_cell_length_a 7.987(1)
_cell_length_b 7.987(1)
_cell_length_c 8.422(1)
_cell_angle_alpha 90.
_cell_angle_beta 90.
_cell_angle_gamma 120.
_cell_volume 465.28
_cell_formula_units_Z 6
_symmetry_space_group_name_H-M 'P 63 c m'
_symmetry_Int_Tables_number 185
_refine_ls_R_factor_all 0.0232
loop_
_symmetry_equiv_pos_site_id
_symmetry_equiv_pos_as_xyz
1 'x, x-y, z+1/2'
2 '-x+y, y, z+1/2'
3 '-y, -x, z+1/2'
4 'x-y, x, z+1/2'
5 'y, -x+y, z+1/2'
6 '-x, -y, z+1/2'
7 '-x, -x+y, z'
8 'x-y, -y, z'
9 'y, x, z'
10 '-x+y, -x, z'
11 '-y, x-y, z'
12 'x, y, z'
loop_
_atom_type_symbol
_atom_type_oxidation_number
Pd0+ 0
Mg0+ 0
loop_
_atom_site_label
_atom_site_type_symbol
_atom_site_symmetry_multiplicity
_atom_site_Wyckoff_symbol
_atom_site_fract_x
_atom_site_fract_y
_atom_site_fract_z
_atom_site_B_iso_or_equiv
_atom_site_occupancy
_atom_site_attached_hydrogens
Pd1 Pd0+ 6 c 0.32839(4) 0. 0.0676(7) 0.01290(9) 1 0
Mg1 Mg0+ 6 c 0.37647(19) 0. 0.3954(4) 0.0231(3) 1 0
Mg2 Mg0+ 6 c 0.7180(2) 0. 0.2393(4) 0.0188(3) 1 0
Mg3 Mg0+ 4 b 0.3333 0.6667 0.1126(5) 0.0263(6) 1 0
Mg4 Mg0+ 2 a 0. 0. 0. 0.0179(4) 1 0
loop_
_atom_site_aniso_label
_atom_site_aniso_type_symbol
_atom_site_aniso_U_11
_atom_site_aniso_U_22
_atom_site_aniso_U_33
_atom_site_aniso_U_12
_atom_site_aniso_U_13
_atom_site_aniso_U_23
Pd1 Pd0+ 0.01283(10) 0.01380(13) 0.01238(11) 0.00690(6) 0.00126(15) 0.
Mg1 Mg0+ 0.0214(4) 0.0422(10) 0.0126(6) 0.0211(5) -0.0031(6) 0.
Mg2 Mg0+ 0.0243(6) 0.0179(7) 0.0120(6) 0.0090(3) 0.0001(5) 0.
Mg3 Mg0+ 0.0130(4) 0.0130(4) 0.0529(19) 0.0065(2) 0. 0.
Mg4 Mg0+ 0.0131(6) 0.0131(6) 0.0275(12) 0.0066(3) 0. 0.
