
#(C) 2017 by FIZ Karlsruhe - Leibniz Institute for Information Infrastructure.  All rights reserved.
data_409939-ICSD
_database_code_ICSD 409939
_audit_creation_date 2008-08-01
_chemical_name_systematic 'Palladium gallide (2/1)'
_chemical_formula_structural 'Pd2 Ga'
_chemical_formula_sum 'Ga1 Pd2'
_chemical_name_structure_type Co2Si
_exptl_crystal_density_diffrn 10.84
_cell_measurement_temperature 295.
_publ_section_title
'Refinement of the crystal structure of dipalladium gallium, Pd2 Ga'
loop_
_citation_id
_citation_journal_full
_citation_year
_citation_journal_volume
_citation_page_first
_citation_page_last
_citation_journal_id_ASTM
primary 'Zeitschrift fuer Kristallographie - New Crystal Structures' 2008 223 7
8 ZKNSFT
loop_
_publ_author_name
'Kovnir, K.'
'Schmidt, M.'
'Waurisch, C.'
'Armbruester, M.'
'Prots', Yu.'
'Grin', Yu.'
_cell_length_a 5.4829(8)
_cell_length_b 4.0560(4)
_cell_length_c 7.7863(8)
_cell_angle_alpha 90
_cell_angle_beta 90
_cell_angle_gamma 90
_cell_volume 173.16
_cell_formula_units_Z 4
_symmetry_space_group_name_H-M 'P n m a'
_symmetry_Int_Tables_number 62
_refine_ls_R_factor_all 0.022
loop_
_symmetry_equiv_pos_site_id
_symmetry_equiv_pos_as_xyz
1 'x+1/2, y, -z+1/2'
2 'x, -y+1/2, z'
3 '-x+1/2, y+1/2, z+1/2'
4 '-x, -y, -z'
5 '-x+1/2, -y, z+1/2'
6 '-x, y+1/2, -z'
7 'x+1/2, -y+1/2, -z+1/2'
8 'x, y, z'
loop_
_atom_type_symbol
_atom_type_oxidation_number
Pd0+ 0
Ga0+ 0
loop_
_atom_site_label
_atom_site_type_symbol
_atom_site_symmetry_multiplicity
_atom_site_Wyckoff_symbol
_atom_site_fract_x
_atom_site_fract_y
_atom_site_fract_z
_atom_site_B_iso_or_equiv
_atom_site_occupancy
_atom_site_attached_hydrogens
Pd1 Pd0+ 4 c 0.16511(1) 0.25 0.06662(7) 0.00890(1) 1. 0
Pd2 Pd0+ 4 c 0.04293(1) 0.25 0.71063(7) 0.00851(1) 1. 0
Ga1 Ga0+ 4 c 0.2016(2) 0.25 0.39316(1) 0.0099(2) 1. 0
loop_
_atom_site_aniso_label
_atom_site_aniso_type_symbol
_atom_site_aniso_U_11
_atom_site_aniso_U_22
_atom_site_aniso_U_33
_atom_site_aniso_U_12
_atom_site_aniso_U_13
_atom_site_aniso_U_23
Pd1 Pd0+ 0.0112(2) 0.0077(2) 0.0078(2) 0 -0.0003(2) 0
Pd2 Pd0+ 0.0076(2) 0.0087(2) 0.0092(2) 0 -0.0001(2) 0
Ga1 Ga0+ 0.0123(3) 0.0081(4) 0.0094(3) 0 -0.0005(3) 0
#End of TTdata_409939-ICSD