
#(C) 2017 by FIZ Karlsruhe - Leibniz Institute for Information Infrastructure.  All rights reserved.
data_410090-ICSD
_database_code_ICSD 410090
_audit_creation_date 2005-10-01
_audit_update_record 2008-02-01
_chemical_name_systematic 'Potassium lead (10/48)'
_chemical_formula_structural 'K10 Pb48'
_chemical_formula_sum 'K10 Pb48'
_chemical_name_structure_type Mn(alpha)-Mn(cI58)
_exptl_crystal_density_diffrn 9.09
_cell_measurement_temperature 298.
_publ_section_title

;
Eine neue Kolorierungsvariante des alpha-Mn-Strukturtyps mit
Hauptgruppenelementen in K5Pb24 - Kristallstruktur, Supraleitung und
Struktur-Eigenschafts-Beziehung
;
loop_
_citation_id
_citation_journal_full
_citation_year
_citation_journal_volume
_citation_page_first
_citation_page_last
_citation_journal_id_ASTM
primary 'Zeitschrift fuer Anorganische und Allgemeine Chemie (1950) (DE)' 1999
625 15 23 ZAACAB
loop_
_publ_author_name
'Faessler, T.C.'
'Kronseder, C.'
'Woerle, M.'
_cell_length_a 12.3580(10)
_cell_length_b 12.3580(10)
_cell_length_c 12.3580(10)
_cell_angle_alpha 90.
_cell_angle_beta 90.
_cell_angle_gamma 90.
_cell_volume 1887.32
_cell_formula_units_Z 1
_symmetry_space_group_name_H-M 'I -4 3 m'
_symmetry_Int_Tables_number 217
_refine_ls_R_factor_all 0.0725
loop_
_symmetry_equiv_pos_site_id
_symmetry_equiv_pos_as_xyz
1 '-z, -y, x'
2 '-y, -x, z'
3 '-x, -z, y'
4 '-z, -x, y'
5 '-y, -z, x'
6 '-x, -y, z'
7 '-z, y, -x'
8 '-y, x, -z'
9 '-x, z, -y'
10 '-z, x, -y'
11 '-y, z, -x'
12 '-x, y, -z'
13 'z, -y, -x'
14 'y, -x, -z'
15 'x, -z, -y'
16 'z, -x, -y'
17 'y, -z, -x'
18 'x, -y, -z'
19 'z, y, x'
20 'y, x, z'
21 'x, z, y'
22 'z, x, y'
23 'y, z, x'
24 'x, y, z'
25 '-z+1/2, -y+1/2, x+1/2'
26 '-y+1/2, -x+1/2, z+1/2'
27 '-x+1/2, -z+1/2, y+1/2'
28 '-z+1/2, -x+1/2, y+1/2'
29 '-y+1/2, -z+1/2, x+1/2'
30 '-x+1/2, -y+1/2, z+1/2'
31 '-z+1/2, y+1/2, -x+1/2'
32 '-y+1/2, x+1/2, -z+1/2'
33 '-x+1/2, z+1/2, -y+1/2'
34 '-z+1/2, x+1/2, -y+1/2'
35 '-y+1/2, z+1/2, -x+1/2'
36 '-x+1/2, y+1/2, -z+1/2'
37 'z+1/2, -y+1/2, -x+1/2'
38 'y+1/2, -x+1/2, -z+1/2'
39 'x+1/2, -z+1/2, -y+1/2'
40 'z+1/2, -x+1/2, -y+1/2'
41 'y+1/2, -z+1/2, -x+1/2'
42 'x+1/2, -y+1/2, -z+1/2'
43 'z+1/2, y+1/2, x+1/2'
44 'y+1/2, x+1/2, z+1/2'
45 'x+1/2, z+1/2, y+1/2'
46 'z+1/2, x+1/2, y+1/2'
47 'y+1/2, z+1/2, x+1/2'
48 'x+1/2, y+1/2, z+1/2'
loop_
_atom_type_symbol
_atom_type_oxidation_number
Pb0+ 0
K0+ 0
loop_
_atom_site_label
_atom_site_type_symbol
_atom_site_symmetry_multiplicity
_atom_site_Wyckoff_symbol
_atom_site_fract_x
_atom_site_fract_y
_atom_site_fract_z
_atom_site_B_iso_or_equiv
_atom_site_occupancy
_atom_site_attached_hydrogens
Pb1 Pb0+ 24 g 0.59490(13) 0.59490(13) 0.79254(18) 0.0274(9) 1 0
Pb2 Pb0+ 24 g 0.86154(13) 0.53993(17) 0.86154(13) 0.0287(9) 1 0
K1 K0+ 2 a 0. 0. 0. 0.028(11) 1 0
K2 K0+ 8 c 0.8183(11) 0.8183(11) 0.8183(11) 0.020(5) 1 0
loop_
_atom_site_aniso_label
_atom_site_aniso_type_symbol
_atom_site_aniso_U_11
_atom_site_aniso_U_22
_atom_site_aniso_U_33
_atom_site_aniso_U_12
_atom_site_aniso_U_13
_atom_site_aniso_U_23
Pb1 Pb0+ 0.0279(11) 0.0279(11) 0.0264(15) -0.0025(10) -0.0010(7) -0.0010(7)
Pb2 Pb0+ 0.0309(11) 0.0243(14) 0.0309(11) 0.0006(7) -0.0018(11) 0.0006(7)
K1 K0+ 0.028(11) 0.028(11) 0.028(11) 0. 0. 0.
K2 K0+ 0.020(5) 0.020(5) 0.020(5) 0.006(5) 0.006(5) 0.006(5)
#End of TTdata_410090-ICSD