
#(C) 2017 by FIZ Karlsruhe - Leibniz Institute for Information Infrastructure.  All rights reserved.
data_41072-ICSD
_database_code_ICSD 41072
_audit_creation_date 2001-07-16
_audit_update_record 2006-04-01
_chemical_name_systematic 'Dicopper(I) hafnium telluride'
_chemical_formula_structural 'Cu2 Hf Te3'
_chemical_formula_sum 'Cu2 Hf1 Te3'
_chemical_name_structure_type Cu2TiTe3
_exptl_crystal_density_diffrn 7.8
_cell_measurement_temperature 111.
_publ_section_title

;
A theoretical and experimental study of the electronic transport properties of
the compounds Cu2 M Te3 (M= Ti, Zr, Hf)
;
loop_
_citation_id
_citation_journal_full
_citation_year
_citation_journal_volume
_citation_page_first
_citation_page_last
_citation_journal_id_ASTM
primary 'Journal of Solid State Chemistry' 1992 99 103 109 JSSCBI
loop_
_publ_author_name
'Mitchell, J.F.'
'Burdett, J.K.'
'Keane, P.M.'
'Ibers, J.A.'
'de Groot, D.C.'
'Hogan, T.P.'
'Schindler, J.L.'
'Kannewurf, C.R.'
_cell_length_a 20.1880(60)
_cell_length_b 4.054(1)
_cell_length_c 7.216(2)
_cell_angle_alpha 90.
_cell_angle_beta 97.16(1)
_cell_angle_gamma 90.
_cell_volume 585.97
_cell_formula_units_Z 4
_symmetry_space_group_name_H-M 'C 1 2/m 1'
_symmetry_Int_Tables_number 12
_refine_ls_R_factor_all 0.045
loop_
_symmetry_equiv_pos_site_id
_symmetry_equiv_pos_as_xyz
1 '-x, y, -z'
2 '-x, -y, -z'
3 'x, -y, z'
4 'x, y, z'
5 '-x+1/2, y+1/2, -z'
6 '-x+1/2, -y+1/2, -z'
7 'x+1/2, -y+1/2, z'
8 'x+1/2, y+1/2, z'
loop_
_atom_type_symbol
_atom_type_oxidation_number
Hf4+ 4
Te2- -2
Cu1+ 1
loop_
_atom_site_label
_atom_site_type_symbol
_atom_site_symmetry_multiplicity
_atom_site_Wyckoff_symbol
_atom_site_fract_x
_atom_site_fract_y
_atom_site_fract_z
_atom_site_B_iso_or_equiv
_atom_site_occupancy
_atom_site_attached_hydrogens
Hf1 Hf4+ 4 i 0.353750(11) 0 0.945440(33) . 1. 0
Te1 Te2- 4 i 0.248330(17) 0 0.21478(5) . 1. 0
Te2 Te2- 4 i 0.417790(18) 0 0.632610(52) . 1. 0
Te3 Te2- 4 i 0.416720(18) 0.5 0.179630(53) . 1. 0
Cu1 Cu1+ 4 i 0.287870(39) 0 0.57071(11) . 1. 0
Cu2 Cu1+ 4 i 0.452920(39) 0.5 0.84751(11) . 1. 0
loop_
_atom_site_aniso_label
_atom_site_aniso_type_symbol
_atom_site_aniso_U_11
_atom_site_aniso_U_22
_atom_site_aniso_U_33
_atom_site_aniso_U_12
_atom_site_aniso_U_13
_atom_site_aniso_U_23
Hf1 Hf4+ 0.00596(11) 0.00662(12) 0.00602(11) 0 0.001211(67) 0
Te1 Te2- 0.00499(14) 0.00538(16) 0.00485(14) 0 0.00106(10) 0
Te2 Te2- 0.00588(14) 0.00654(16) 0.00531(14) 0 0.00135(10) 0
Te3 Te2- 0.00562(14) 0.00602(16) 0.00539(14) 0 0.000652(98) 0
Cu1 Cu1+ 0.00821(27) 0.00896(33) 0.00667(27) 0 -.00020(21) 0
Cu2 Cu1+ 0.00752(26) 0.00842(33) 0.00685(27) 0 0.00106(21) 0
#End of TTdata_41072-ICSD