
#(C) 2017 by FIZ Karlsruhe - Leibniz Institute for Information Infrastructure.  All rights reserved.
data_410732-ICSD
_database_code_ICSD 410732
_audit_creation_date 2005-04-01
_audit_update_record 2011-02-01
_chemical_name_systematic 'Lanthanum rhodium stannide (1/1/2)'
_chemical_formula_structural 'La Rh Sn2'
_chemical_formula_sum 'La1 Rh1 Sn2'
_chemical_name_structure_type LaRhSn2
_exptl_crystal_density_diffrn 8.3
_publ_section_title 'The stannides La Rh Sn2 and Ce Rh Sn2'
loop_
_citation_id
_citation_journal_full
_citation_year
_citation_journal_volume
_citation_page_first
_citation_page_last
_citation_journal_id_ASTM
primary 'Chemistry of Materials' 1999 11 1597 1602 CMATEX
loop_
_publ_author_name
'Niepmann, D.'
'Poettgen, R.'
'Kuennen, B.'
'Kotzyba, G.'
'Rosenhahn, C.'
'Mosel, B.D.'
_cell_length_a 4.639(1)
_cell_length_b 17.100(3)
_cell_length_c 9.637(2)
_cell_angle_alpha 90.
_cell_angle_beta 90.
_cell_angle_gamma 90.
_cell_volume 764.47
_cell_formula_units_Z 8
_symmetry_space_group_name_H-M 'C m c m'
_symmetry_Int_Tables_number 63
_refine_ls_R_factor_all 0.0325
loop_
_symmetry_equiv_pos_site_id
_symmetry_equiv_pos_as_xyz
1 '-x, y, -z+1/2'
2 '-x, -y, z+1/2'
3 '-x, y, z'
4 '-x, -y, -z'
5 'x, -y, z+1/2'
6 'x, y, -z+1/2'
7 'x, -y, -z'
8 'x, y, z'
9 '-x+1/2, y+1/2, -z+1/2'
10 '-x+1/2, -y+1/2, z+1/2'
11 '-x+1/2, y+1/2, z'
12 '-x+1/2, -y+1/2, -z'
13 'x+1/2, -y+1/2, z+1/2'
14 'x+1/2, y+1/2, -z+1/2'
15 'x+1/2, -y+1/2, -z'
16 'x+1/2, y+1/2, z'
loop_
_atom_type_symbol
_atom_type_oxidation_number
La0+ 0
Rh0+ 0
Sn0+ 0
loop_
_atom_site_label
_atom_site_type_symbol
_atom_site_symmetry_multiplicity
_atom_site_Wyckoff_symbol
_atom_site_fract_x
_atom_site_fract_y
_atom_site_fract_z
_atom_site_B_iso_or_equiv
_atom_site_occupancy
_atom_site_attached_hydrogens
La1 La0+ 4 c 0. 0.2976(2) 0.25 1.06(6) 1 0
La2 La0+ 4 b 0. 0.5 0. 1.06(6) 1 0
Rh1 Rh0+ 8 f 0. 0.1485(2) 0.5069(4) 1.48(8) 1 0
Sn1 Sn0+ 8 f 0. 0.3039(2) 0.5889(3) 1.74(5) 1 0
Sn2 Sn0+ 4 c 0. 0.0921(3) 0.25 1.74(5) 1 0
Sn3 Sn0+ 4 c 0. 0.9277(3) 0.25 1.74(5) 1 0
#End of TTdata_410732-ICSD