
#(C) 2017 by FIZ Karlsruhe - Leibniz Institute for Information Infrastructure.  All rights reserved.
data_410892-ICSD
_database_code_ICSD 410892
_audit_creation_date 2003-10-01
_chemical_name_systematic 'Calcium iridium indium (1/1/4)'
_chemical_formula_structural 'Ca Ir In4'
_chemical_formula_sum 'Ca1 In4 Ir1'
_chemical_name_structure_type LaCoAl4
_exptl_crystal_density_diffrn 8.36
_publ_section_title
'Distorted bcc indium cubes as structural motifs in CaTIn4 (T = Rh, Pd, Ir)'
loop_
_citation_id
_citation_journal_full
_citation_year
_citation_journal_volume
_citation_page_first
_citation_page_last
_citation_journal_id_ASTM
primary 'Chemistry - A European Journal' 2000 6 600 607 CEUJED
loop_
_publ_author_name
'Hoffmann, R.D.'
'Poettgen, R.'
_cell_length_a 8.695(1)
_cell_length_b 4.2411(6)
_cell_length_c 7.464(1)
_cell_angle_alpha 90.
_cell_angle_beta 90.
_cell_angle_gamma 90.
_cell_volume 275.25
_cell_formula_units_Z 2
_symmetry_space_group_name_H-M 'P m m a'
_symmetry_Int_Tables_number 51
_refine_ls_R_factor_all 0.0624
loop_
_symmetry_equiv_pos_site_id
_symmetry_equiv_pos_as_xyz
1 '-x+1/2, -y, z'
2 'x+1/2, -y, -z'
3 'x, -y, z'
4 '-x, -y, -z'
5 'x+1/2, y, -z'
6 '-x+1/2, y, z'
7 '-x, y, -z'
8 'x, y, z'
loop_
_atom_type_symbol
_atom_type_oxidation_number
Ca0+ 0
Ir0+ 0
In0+ 0
loop_
_atom_site_label
_atom_site_type_symbol
_atom_site_symmetry_multiplicity
_atom_site_Wyckoff_symbol
_atom_site_fract_x
_atom_site_fract_y
_atom_site_fract_z
_atom_site_B_iso_or_equiv
_atom_site_occupancy
_atom_site_attached_hydrogens
Ca1 Ca0+ 2 e 0.25 0 0.4008(6) . 1. 0
Ir1 Ir0+ 2 e 0.25 0 0.80677(10) . 1. 0
In1 In0+ 2 a 0 0 0 . 1. 0
In2 In0+ 2 f 0.25 0.5 0.06620(18) . 1. 0
In3 In0+ 4 j 0.06513(11) 0.5 0.68542(14) . 1. 0
loop_
_atom_site_aniso_label
_atom_site_aniso_type_symbol
_atom_site_aniso_U_11
_atom_site_aniso_U_22
_atom_site_aniso_U_33
_atom_site_aniso_U_12
_atom_site_aniso_U_13
_atom_site_aniso_U_23
Ca1 Ca0+ 0.019(2) 0.009(2) 0.015(2) 0 0 0
Ir1 Ir0+ 0.0058(3) 0.0059(4) 0.0074(4) 0 0 0
In1 In0+ 0.0090(6) 0.0131(8) 0.0161(7) 0 0.0052(5) 0
In2 In0+ 0.0114(7) 0.0076(7) 0.0085(6) 0 0 0
In3 In0+ 0.0104(5) 0.0085(5) 0.0098(4) 0 -0.0025(4) 0
#End of TTdata_410892-ICSD