
#(C) 2017 by FIZ Karlsruhe - Leibniz Institute for Information Infrastructure.  All rights reserved.
data_410891-ICSD
_database_code_ICSD 410891
_audit_creation_date 2003-10-01
_chemical_name_systematic 'Calcium rhodium indium (1/1/4)'
_chemical_formula_structural 'Ca Rh In4'
_chemical_formula_sum 'Ca1 In4 Rh1'
_chemical_name_structure_type LaCoAl4
_exptl_crystal_density_diffrn 7.29
_publ_section_title
'Distorted bcc indium cubes as structural motifs in CaTIn4 (T = Rh, Pd, Ir)'
loop_
_citation_id
_citation_journal_full
_citation_year
_citation_journal_volume
_citation_page_first
_citation_page_last
_citation_journal_id_ASTM
primary 'Solid State Sciences' 2002 4 1 103 SSSCFJ
loop_
_publ_author_name
'Hoffmann, R.D.'
'Poettgen, R.'
_cell_length_a 8.676(1)
_cell_length_b 4.2291(8)
_cell_length_c 7.452(1)
_cell_angle_alpha 90.
_cell_angle_beta 90.
_cell_angle_gamma 90.
_cell_volume 273.43
_cell_formula_units_Z 2
_symmetry_space_group_name_H-M 'P m m a'
_symmetry_Int_Tables_number 51
_refine_ls_R_factor_all 0.0282
loop_
_symmetry_equiv_pos_site_id
_symmetry_equiv_pos_as_xyz
1 '-x+1/2, -y, z'
2 'x+1/2, -y, -z'
3 'x, -y, z'
4 '-x, -y, -z'
5 'x+1/2, y, -z'
6 '-x+1/2, y, z'
7 '-x, y, -z'
8 'x, y, z'
loop_
_atom_type_symbol
_atom_type_oxidation_number
Ca0+ 0
Rh0+ 0
In0+ 0
loop_
_atom_site_label
_atom_site_type_symbol
_atom_site_symmetry_multiplicity
_atom_site_Wyckoff_symbol
_atom_site_fract_x
_atom_site_fract_y
_atom_site_fract_z
_atom_site_B_iso_or_equiv
_atom_site_occupancy
_atom_site_attached_hydrogens
Ca1 Ca0+ 2 e 0.25 0 0.4002(3) . 1. 0
Rh1 Rh0+ 2 e 0.25 0 0.80781(9) . 1. 0
In1 In0+ 2 a 0 0 0 . 1. 0
In2 In0+ 2 f 0.25 0.5 0.06525(8) . 1. 0
In3 In0+ 4 j 0.06444(5) 0.5 0.68673(6) . 1. 0
loop_
_atom_site_aniso_label
_atom_site_aniso_type_symbol
_atom_site_aniso_U_11
_atom_site_aniso_U_22
_atom_site_aniso_U_33
_atom_site_aniso_U_12
_atom_site_aniso_U_13
_atom_site_aniso_U_23
Ca1 Ca0+ 0.0200(9) 0.0127(9) 0.0104(8) 0 0 0
Rh1 Rh0+ 0.0046(3) 0.0090(4) 0.0081(3) 0 0 0
In1 In0+ 0.0072(3) 0.0141(4) 0.0163(4) 0 0.0045(2) 0
In2 In0+ 0.0096(3) 0.0095(3) 0.0099(3) 0 0 0
In3 In0+ 0.0090(3) 0.0114(3) 0.0104(3) 0 -0.00186(13) 0
#End of TTdata_410891-ICSD