
#(C) 2017 by FIZ Karlsruhe - Leibniz Institute for Information Infrastructure.  All rights reserved.
data_411177-ICSD
_database_code_ICSD 411177
_audit_creation_date 2002-04-01
_chemical_name_systematic 'Tin bromide'
_chemical_formula_structural 'Sn Br2'
_chemical_formula_sum 'Br2 Sn1'
_chemical_name_structure_type PbCl2
_exptl_crystal_density_diffrn 4.94
_publ_section_title

;
Inert pair effects in tin and lead dihalides: crystal structure of tin(II)
bromide
;
loop_
_citation_id
_citation_journal_full
_citation_year
_citation_journal_volume
_citation_page_first
_citation_page_last
_citation_journal_id_ASTM
primary 'Journal of Solid State Chemistry' 2000 149 28 32 JSSCBI
loop_
_publ_author_name
'Abrahams, I.'
'Demetriou, D.Z.'
_cell_length_a 10.5251(7)
_cell_length_b 8.3936(5)
_cell_length_c 4.2369(3)
_cell_angle_alpha 90.
_cell_angle_beta 90.
_cell_angle_gamma 90.
_cell_volume 374.3
_cell_formula_units_Z 4
_symmetry_space_group_name_H-M 'P b n m'
_symmetry_Int_Tables_number 62
_refine_ls_R_factor_all 0.0791
loop_
_symmetry_equiv_pos_site_id
_symmetry_equiv_pos_as_xyz
1 '-x+1/2, y+1/2, z'
2 'x, y, -z+1/2'
3 'x+1/2, -y+1/2, z+1/2'
4 '-x, -y, -z'
5 'x+1/2, -y+1/2, -z'
6 '-x, -y, z+1/2'
7 '-x+1/2, y+1/2, -z+1/2'
8 'x, y, z'
loop_
_atom_type_symbol
_atom_type_oxidation_number
Sn2+ 2
Br1- -1
loop_
_atom_site_label
_atom_site_type_symbol
_atom_site_symmetry_multiplicity
_atom_site_Wyckoff_symbol
_atom_site_fract_x
_atom_site_fract_y
_atom_site_fract_z
_atom_site_B_iso_or_equiv
_atom_site_occupancy
_atom_site_attached_hydrogens
Sn1 Sn2+ 4 c 0.3288(3) 0.3662(3) 0.25 0.035(2) 1. 0
Br1 Br1- 4 c 0.1787(5) 0.5139(5) 0.75 0.026(2) 1. 0
Br2 Br1- 4 c 0.4501(4) 0.6650(5) 0.25 0.015(2) 1. 0
#End of TTdata_411177-ICSD