
#(C) 2017 by FIZ Karlsruhe - Leibniz Institute for Information Infrastructure.  All rights reserved.
data_411624-ICSD
_database_code_ICSD 411624
_audit_creation_date 2002-10-01
_chemical_name_systematic 'Niobium boride carbide (7/4/4)'
_chemical_formula_structural 'Nb7 B4 C4'
_chemical_formula_sum 'C4 B4 Nb7'
_exptl_crystal_density_diffrn 7.53
_publ_section_title
'Crystal structures from a building set: the first boridecarbides of niobium'
loop_
_citation_id
_citation_journal_full
_citation_year
_citation_journal_volume
_citation_page_first
_citation_page_last
_citation_journal_id_ASTM
primary 'Angewandte Chemie. International Edition' 2001 40 1445 1447 ACIEF5
loop_
_publ_author_name
'Hillebrecht, H.'
'Gebhardt, K.'
_cell_length_a 3.1541(5)
_cell_length_b 3.2166(4)
_cell_length_c 32.2610(30)
_cell_angle_alpha 90.
_cell_angle_beta 90.
_cell_angle_gamma 90.
_cell_volume 327.3
_cell_formula_units_Z 2
_symmetry_space_group_name_H-M 'I m m m'
_symmetry_Int_Tables_number 71
_refine_ls_R_factor_all 0.023
loop_
_symmetry_equiv_pos_site_id
_symmetry_equiv_pos_as_xyz
1 'x, y, -z'
2 'x, -y, z'
3 '-x, y, z'
4 '-x, -y, -z'
5 '-x, -y, z'
6 '-x, y, -z'
7 'x, -y, -z'
8 'x, y, z'
9 'x+1/2, y+1/2, -z+1/2'
10 'x+1/2, -y+1/2, z+1/2'
11 '-x+1/2, y+1/2, z+1/2'
12 '-x+1/2, -y+1/2, -z+1/2'
13 '-x+1/2, -y+1/2, z+1/2'
14 '-x+1/2, y+1/2, -z+1/2'
15 'x+1/2, -y+1/2, -z+1/2'
16 'x+1/2, y+1/2, z+1/2'
loop_
_atom_type_symbol
_atom_type_oxidation_number
Nb0+ 0
B0+ 0
C0+ 0
loop_
_atom_site_label
_atom_site_type_symbol
_atom_site_symmetry_multiplicity
_atom_site_Wyckoff_symbol
_atom_site_fract_x
_atom_site_fract_y
_atom_site_fract_z
_atom_site_B_iso_or_equiv
_atom_site_occupancy
_atom_site_attached_hydrogens
Nb1 Nb0+ 4 i 0.5 0.5 0.14725(1) . 1. 0
Nb2 Nb0+ 4 i 0 0 0.21445(1) . 1. 0
Nb3 Nb0+ 4 i 0 0 0.08165(1) . 1. 0
Nb4 Nb0+ 2 b 0.5 0 0 . 1. 0
B1 B0+ 4 j 0 0.5 0.02855(13) . 1. 0
B2 B0+ 4 i 0.5 0.5 0.05782(14) . 1. 0
C1 C0+ 4 i 0.5 0.5 0.21519(10) . 1. 0
C2 C0+ 4 i 0 0 0.14722(11) . 1. 0
loop_
_atom_site_aniso_label
_atom_site_aniso_type_symbol
_atom_site_aniso_U_11
_atom_site_aniso_U_22
_atom_site_aniso_U_33
_atom_site_aniso_U_12
_atom_site_aniso_U_13
_atom_site_aniso_U_23
Nb1 Nb0+ 0.00468(14) 0.00412(13) 0.00470(12) 0 0 0
Nb2 Nb0+ 0.00466(13) 0.00431(13) 0.00446(11) 0 0 0
Nb3 Nb0+ 0.00411(14) 0.00352(14) 0.00388(12) 0 0 0
Nb4 Nb0+ 0.0037(2) 0.0037(2) 0.0038(2) 0 0 0
B1 B0+ 0.007(2) 0.006(2) 0.0049(12) 0 0 0
B2 B0+ 0.006(2) 0.006(2) 0.0079(14) 0 0 0
C1 C0+ 0.0058(13) 0.0064(14) 0.0038(11) 0 0 0
C2 C0+ 0.0037(13) 0.0034(13) 0.0057(11) 0 0 0
#End of TTdata_411624-ICSD