
data_411822-ICSD
_database_code_ICSD 411822
_audit_creation_date 2005-04-01
_audit_update_record 2008-08-01
_chemical_name_systematic 'Scandium platinum tin (1/1/1)'
_chemical_formula_structural 'Sc Pt Sn'
_chemical_formula_sum 'Pt1 Sc1 Sn1'
_chemical_name_structure_type Mg2Ga
_exptl_crystal_density_diffrn 10.38
_cell_length_a 7.3837(9)
_cell_length_b 7.3837(9)
_cell_length_c 7.2947(9)
_cell_angle_alpha 90.
_cell_angle_beta 90.
_cell_angle_gamma 120.
_cell_volume 344.42
_cell_formula_units_Z 6
_symmetry_space_group_name_H-M 'P -6 2 c'
_symmetry_Int_Tables_number 190
_refine_ls_R_factor_all 0.0352
loop_
_symmetry_equiv_pos_site_id
_symmetry_equiv_pos_as_xyz
1 '-x, -x+y, -z'
2 'x-y, -y, -z'
3 'y, x, -z'
4 '-x, -x+y, z+1/2'
5 'x-y, -y, z+1/2'
6 'y, x, z+1/2'
7 '-x+y, -x, -z+1/2'
8 '-y, x-y, -z+1/2'
9 'x, y, -z+1/2'
10 '-x+y, -x, z'
11 '-y, x-y, z'
12 'x, y, z'
loop_
_atom_type_symbol
_atom_type_oxidation_number
Sc0+ 0
Pt0+ 0
Sn0+ 0
loop_
_atom_site_label
_atom_site_type_symbol
_atom_site_symmetry_multiplicity
_atom_site_Wyckoff_symbol
_atom_site_fract_x
_atom_site_fract_y
_atom_site_fract_z
_atom_site_B_iso_or_equiv
_atom_site_occupancy
_atom_site_attached_hydrogens
Sc1 Sc0+ 6 h 0.4047(5) 0.0191(6) 0.25 0.0056(6) 1 0
Pt1 Pt0+ 4 f 0.3333 0.6667 0.03656(10) 0.00531(17) 1 0
Pt2 Pt0+ 2 b 0. 0. 0.25 0.0044(2) 1 0
Sn1 Sn0+ 6 g 0.72699(13) 0. 0. 0.0047(2) 1 0
loop_
_atom_site_aniso_label
_atom_site_aniso_type_symbol
_atom_site_aniso_U_11
_atom_site_aniso_U_22
_atom_site_aniso_U_33
_atom_site_aniso_U_12
_atom_site_aniso_U_13
_atom_site_aniso_U_23
Sc1 Sc0+ 0.0062(16) 0.0066(14) 0.0044(16) 0.0033(13) 0. 0.
Pt1 Pt0+ 0.0050(2) 0.0050(2) 0.0059(3) 0.00251(10) 0. 0.
Pt2 Pt0+ 0.0045(2) 0.0045(2) 0.0043(6) 0.00225(12) 0. 0.
Sn1 Sn0+ 0.0049(3) 0.0046(4) 0.0045(5) 0.0023(2) -0.0001(2) -0.0002(4)
