
#(C) 2017 by FIZ Karlsruhe - Leibniz Institute for Information Infrastructure.  All rights reserved.
data_412012-ICSD
_database_code_ICSD 412012
_audit_creation_date 2005-04-01
_chemical_name_systematic 'Strontium platinum stannide (1/1/1)'
_chemical_formula_structural 'Sr Pt Sn'
_chemical_formula_sum 'Pt1 Sn1 Sr1'
_chemical_name_structure_type TiNiSi-MgSrSi
_exptl_crystal_density_diffrn 9.27
_publ_section_title

;
Transition metal tin ordering in Sr Pt Sn, Sr Au Sn and Ba Au Sn and 119Sn
Moessbauer spectroscopy of Ca Pd Sn, Ca Pt Sn and Sr Au Sn
;
loop_
_citation_id
_citation_journal_full
_citation_year
_citation_journal_volume
_citation_page_first
_citation_page_last
_citation_journal_id_ASTM
primary 'Solid State Sciences' 2002 4 481 487 SSSCFJ
loop_
_publ_author_name
'Hoffmann, R.D.'
'Poettgen, R.'
'Kussmann, D.'
'Niepmann, D.'
'Trill, H.'
'Mosel, B.D.'
_cell_length_a 7.6416(7)
_cell_length_b 4.7074(4)
_cell_length_c 7.9964(7)
_cell_angle_alpha 90.
_cell_angle_beta 90.
_cell_angle_gamma 90.
_cell_volume 287.65
_cell_formula_units_Z 4
_symmetry_space_group_name_H-M 'P n m a'
_symmetry_Int_Tables_number 62
_refine_ls_R_factor_all 0.0313
loop_
_symmetry_equiv_pos_site_id
_symmetry_equiv_pos_as_xyz
1 'x+1/2, y, -z+1/2'
2 'x, -y+1/2, z'
3 '-x+1/2, y+1/2, z+1/2'
4 '-x, -y, -z'
5 '-x+1/2, -y, z+1/2'
6 '-x, y+1/2, -z'
7 'x+1/2, -y+1/2, -z+1/2'
8 'x, y, z'
loop_
_atom_type_symbol
_atom_type_oxidation_number
Sr0+ 0
Pt0+ 0
Sn0+ 0
loop_
_atom_site_label
_atom_site_type_symbol
_atom_site_symmetry_multiplicity
_atom_site_Wyckoff_symbol
_atom_site_fract_x
_atom_site_fract_y
_atom_site_fract_z
_atom_site_B_iso_or_equiv
_atom_site_occupancy
_atom_site_attached_hydrogens
Sr1 Sr0+ 4 c 0.01830(16) 0.25 0.68232(14) 0.0086(3) 1 0
Pt1 Pt0+ 4 c 0.29831(7) 0.25 0.39391(6) 0.00860(19) 1 0
Sn1 Sn0+ 4 c 0.16234(12) 0.25 0.07482(10) 0.0077(2) 1 0
loop_
_atom_site_aniso_label
_atom_site_aniso_type_symbol
_atom_site_aniso_U_11
_atom_site_aniso_U_22
_atom_site_aniso_U_33
_atom_site_aniso_U_12
_atom_site_aniso_U_13
_atom_site_aniso_U_23
Sr1 Sr0+ 0.0080(6) 0.0097(5) 0.0081(5) 0. -0.0009(4) 0.
Pt1 Pt0+ 0.0079(3) 0.0094(3) 0.0085(3) 0. 0.00063(16) 0.
Sn1 Sn0+ 0.0076(4) 0.0092(4) 0.0064(4) 0. 0.0006(3) 0.
#End of TTdata_412012-ICSD