
#(C) 2017 by FIZ Karlsruhe - Leibniz Institute for Information Infrastructure.  All rights reserved.
data_412251-ICSD
_database_code_ICSD 412251
_audit_creation_date 2003-10-01
_chemical_name_systematic 'Lithium rhodium stannide (1/1/4)'
_chemical_formula_structural 'Li Rh Sn4'
_chemical_formula_sum 'Li1 Rh1 Sn4'
_chemical_name_structure_type LiIrSn4
_exptl_crystal_density_diffrn 7.85
_publ_section_title

;
Synthesis and Structure of the Intermetallic Lithium Stannides LiTSn4 (T = Ru,
Rh, Ir) with Ordered PdGa5 Type Structure
;
loop_
_citation_id
_citation_journal_full
_citation_year
_citation_journal_volume
_citation_page_first
_citation_page_last
_citation_journal_id_ASTM
primary 'Zeitschrift fuer Anorganische und Allgemeine Chemie (1950) (DE)' 2002
628 1484 1488 ZAACAB
loop_
_publ_author_name
'Wu, Z.Y.'
'Hoffmann, R.D.'
'Poettgen, R.'
_cell_length_a 6.5873(5)
_cell_length_b 6.5873(5)
_cell_length_c 11.364(1)
_cell_angle_alpha 90.
_cell_angle_beta 90.
_cell_angle_gamma 90.
_cell_volume 493.11
_cell_formula_units_Z 4
_symmetry_space_group_name_H-M 'I 4/m c m'
_symmetry_Int_Tables_number 140
_refine_ls_R_factor_all 0.0385
loop_
_symmetry_equiv_pos_site_id
_symmetry_equiv_pos_as_xyz
1 'y, x, -z+1/2'
2 '-y, -x, -z+1/2'
3 '-y, x, -z'
4 'y, -x, -z'
5 'x, -y, -z+1/2'
6 '-x, y, -z+1/2'
7 'x, y, -z'
8 '-x, -y, -z'
9 '-y, -x, z+1/2'
10 'y, x, z+1/2'
11 'y, -x, z'
12 '-y, x, z'
13 '-x, y, z+1/2'
14 'x, -y, z+1/2'
15 '-x, -y, z'
16 'x, y, z'
17 'y+1/2, x+1/2, -z'
18 '-y+1/2, -x+1/2, -z'
19 '-y+1/2, x+1/2, -z+1/2'
20 'y+1/2, -x+1/2, -z+1/2'
21 'x+1/2, -y+1/2, -z'
22 '-x+1/2, y+1/2, -z'
23 'x+1/2, y+1/2, -z+1/2'
24 '-x+1/2, -y+1/2, -z+1/2'
25 '-y+1/2, -x+1/2, z'
26 'y+1/2, x+1/2, z'
27 'y+1/2, -x+1/2, z+1/2'
28 '-y+1/2, x+1/2, z+1/2'
29 '-x+1/2, y+1/2, z'
30 'x+1/2, -y+1/2, z'
31 '-x+1/2, -y+1/2, z+1/2'
32 'x+1/2, y+1/2, z+1/2'
loop_
_atom_type_symbol
_atom_type_oxidation_number
Li0+ 0
Rh0+ 0
Sn0+ 0
loop_
_atom_site_label
_atom_site_type_symbol
_atom_site_symmetry_multiplicity
_atom_site_Wyckoff_symbol
_atom_site_fract_x
_atom_site_fract_y
_atom_site_fract_z
_atom_site_B_iso_or_equiv
_atom_site_occupancy
_atom_site_attached_hydrogens
Li1 Li0+ 4 c 0 0 0 0.043(10) 1. 0
Rh1 Rh0+ 4 a 0 0 0.25 . 1. 0
Sn1 Sn0+ 16 l 0.16037(5) 0.33963(5) 0.36529(4) . 1. 0
loop_
_atom_site_aniso_label
_atom_site_aniso_type_symbol
_atom_site_aniso_U_11
_atom_site_aniso_U_22
_atom_site_aniso_U_33
_atom_site_aniso_U_12
_atom_site_aniso_U_13
_atom_site_aniso_U_23
Rh1 Rh0+ 0.0083(3) 0.0083(3) 0.0101(4) 0 0 0
Sn1 Sn0+ 0.01216(17) 0.01216(17) 0.0110(2) -0.00126(17) 0.00080(13) -0.00080(13)
#End of TTdata_412251-ICSD