
data_412207-ICSD
_database_code_ICSD 412207
_audit_creation_date 2005-04-01
_audit_update_record 2007-04-01
_chemical_name_systematic 'Lithium gold stannide (1/3/4)'
_chemical_formula_structural 'Li Au3 Sn4'
_chemical_formula_sum 'Au3 Li1 Sn4'
_exptl_crystal_density_diffrn 9.96
_cell_length_a 4.4831(6)
_cell_length_b 4.4831(6)
_cell_length_c 20.557(4)
_cell_angle_alpha 90.
_cell_angle_beta 90.
_cell_angle_gamma 120.
_cell_volume 357.81
_cell_formula_units_Z 2
_symmetry_space_group_name_H-M 'P 63 m c'
_symmetry_Int_Tables_number 186
_refine_ls_R_factor_all 0.0605
loop_
_symmetry_equiv_pos_site_id
_symmetry_equiv_pos_as_xyz
1 '-x, -x+y, z+1/2'
2 'x-y, -y, z+1/2'
3 'y, x, z+1/2'
4 'x-y, x, z+1/2'
5 'y, -x+y, z+1/2'
6 '-x, -y, z+1/2'
7 'x, x-y, z'
8 '-x+y, y, z'
9 '-y, -x, z'
10 '-x+y, -x, z'
11 '-y, x-y, z'
12 'x, y, z'
loop_
_atom_type_symbol
_atom_type_oxidation_number
Au0+ 0
Sn0+ 0
Li0+ 0
loop_
_atom_site_label
_atom_site_type_symbol
_atom_site_symmetry_multiplicity
_atom_site_Wyckoff_symbol
_atom_site_fract_x
_atom_site_fract_y
_atom_site_fract_z
_atom_site_B_iso_or_equiv
_atom_site_occupancy
_atom_site_attached_hydrogens
Au1 Au0+ 2 a 0. 0. 0.16473(9) 0.0116(2) 1 0
Au2 Au0+ 2 b 0.3333 0.6667 0.48426(9) 0.0162(3) 1 0
Au3 Au0+ 2 b 0.3333 0.6667 0.34576(6) 0.0136(4) 1 0
Sn1 Sn0+ 2 b 0.6667 0.3333 0.12513(14) 0.0109(4) 1 0
Sn2 Sn0+ 2 b 0.6667 0.3333 0.40817(18) 0.0142(4) 1 0
Sn3 Sn0+ 2 a 0. 0. 0.02937(12) 0.0159(7) 1 0
Sn4 Sn0+ 2 a 0. 0. 0.29581(13) 0.0111(7) 1 0
Li1 Li0+ 2 b 0.3333 0.6667 0.211(3) 0.01 1 0
loop_
_atom_site_aniso_label
_atom_site_aniso_type_symbol
_atom_site_aniso_U_11
_atom_site_aniso_U_22
_atom_site_aniso_U_33
_atom_site_aniso_U_12
_atom_site_aniso_U_13
_atom_site_aniso_U_23
Au1 Au0+ 0.0127(3) 0.0127(3) 0.0095(4) 0.00633(15) 0. 0.
Au2 Au0+ 0.0192(4) 0.0192(4) 0.0103(5) 0.0096(2) 0. 0.
Au3 Au0+ 0.0156(5) 0.0156(5) 0.0098(7) 0.0078(3) 0. 0.
Sn1 Sn0+ 0.0108(5) 0.0108(5) 0.0111(11) 0.0054(3) 0. 0.
Sn2 Sn0+ 0.0125(5) 0.0125(5) 0.0175(11) 0.0062(2) 0. 0.
Sn3 Sn0+ 0.0192(11) 0.0192(11) 0.0093(14) 0.0096(6) 0. 0.
Sn4 Sn0+ 0.0132(12) 0.0132(12) 0.0068(11) 0.0066(6) 0. 0.
