
#(C) 2017 by FIZ Karlsruhe - Leibniz Institute for Information Infrastructure.  All rights reserved.
data_412706-ICSD
_database_code_ICSD 412706
_audit_creation_date 2003-10-01
_audit_update_record 2011-02-01
_chemical_name_systematic 'Hafnium rhodium indium (5/2/4)'
_chemical_formula_structural 'Hf5 Rh2 In4'
_chemical_formula_sum 'Hf5 In4 Rh2'
_chemical_name_structure_type Hf5Rh2In4
_exptl_crystal_density_diffrn 11.8
_publ_section_title

;
Synthesis and crystal structure of Zr5 Rh2 In4 and Hf5 Rh2 In4 - New ternary
indides with Lu5Ni2In4-type structure
;
loop_
_citation_id
_citation_journal_full
_citation_year
_citation_journal_volume
_citation_page_first
_citation_page_last
_citation_journal_id_ASTM
primary 'Zeitschrift fuer Naturforschung, B: Chemical Sciences' 2002 57 1353
1358 ZNBSEN
loop_
_publ_author_name
'Lukachuk, M.'
'Poettgen, R.'
_cell_length_a 17.321(3)
_cell_length_b 7.575(2)
_cell_length_c 3.3336(7)
_cell_angle_alpha 90.
_cell_angle_beta 90.
_cell_angle_gamma 90.
_cell_volume 437.39
_cell_formula_units_Z 2
_symmetry_space_group_name_H-M 'P b a m'
_symmetry_Int_Tables_number 55
_refine_ls_R_factor_all 0.0365
loop_
_symmetry_equiv_pos_site_id
_symmetry_equiv_pos_as_xyz
1 'x+1/2, -y+1/2, z'
2 '-x+1/2, y+1/2, z'
3 'x, y, -z'
4 '-x, -y, -z'
5 '-x+1/2, y+1/2, -z'
6 'x+1/2, -y+1/2, -z'
7 '-x, -y, z'
8 'x, y, z'
loop_
_atom_type_symbol
_atom_type_oxidation_number
Hf0+ 0
Rh0+ 0
In0+ 0
loop_
_atom_site_label
_atom_site_type_symbol
_atom_site_symmetry_multiplicity
_atom_site_Wyckoff_symbol
_atom_site_fract_x
_atom_site_fract_y
_atom_site_fract_z
_atom_site_B_iso_or_equiv
_atom_site_occupancy
_atom_site_attached_hydrogens
Hf1 Hf0+ 2 a 0 0 0 0.01042(18) 1. 0
Hf2 Hf0+ 4 g 0.22164(3) 0.25887(7) 0 0.00927(14) 1. 0
Hf3 Hf0+ 4 g 0.42025(3) 0.13587(7) 0 0.00813(14) 1. 0
Rh1 Rh0+ 4 h 0.30659(6) 0.04811(13) 0.5 0.0079(2) 1. 0
In1 In0+ 4 h 0.56733(6) 0.20086(12) 0.5 0.00819(19) 1. 0
In2 In0+ 4 h 0.85107(5) 0.06247(11) 0.5 0.00691(19) 1. 0
loop_
_atom_site_aniso_label
_atom_site_aniso_type_symbol
_atom_site_aniso_U_11
_atom_site_aniso_U_22
_atom_site_aniso_U_33
_atom_site_aniso_U_12
_atom_site_aniso_U_13
_atom_site_aniso_U_23
Hf1 Hf0+ 0.0107(4) 0.0093(3) 0.0112(4) 0.0002(3) 0 0
Hf2 Hf0+ 0.0104(3) 0.0102(2) 0.0072(2) 0.0001(2) 0 0
Hf3 Hf0+ 0.0078(3) 0.0077(2) 0.0088(2) 0.0006(2) 0 0
Rh1 Rh0+ 0.0059(4) 0.0062(4) 0.0116(5) -0.0003(4) 0 0
In1 In0+ 0.0077(4) 0.0061(4) 0.0108(4) 0.0013(3) 0 0
In2 In0+ 0.0062(4) 0.0049(4) 0.0096(4) -0.0004(3) 0 0
#End of TTdata_412706-ICSD