
#(C) 2017 by FIZ Karlsruhe - Leibniz Institute for Information Infrastructure.  All rights reserved.
data_413171-ICSD
_database_code_ICSD 413171
_audit_creation_date 2005-04-01
_audit_update_record 2010-08-01
_chemical_name_systematic 'Lanthanum selenide telluride (1/1/2)'
_chemical_formula_structural 'La Se Te2'
_chemical_formula_sum 'La1 Se1 Te2'
_chemical_name_structure_type NdTe3
_exptl_crystal_density_diffrn 6.62
_cell_measurement_temperature 373.
_publ_section_title

;
La Se Te2 - Temperature dependent structure investigation and electron
holography on a charge-density-wave-hosting compound
;
loop_
_citation_id
_citation_journal_full
_citation_year
_citation_journal_volume
_citation_page_first
_citation_page_last
_citation_journal_id_ASTM
primary 'Chemistry - A European Journal' 2003 9 5865 5872 CEUJED
loop_
_publ_author_name
'Doert, T.'
'Fokwa, B.P.T.'
'Simon, P.'
'Lidin, S.'
'Soehnel, T.'
_cell_length_a 4.309(1)
_cell_length_b 25.481(6)
_cell_length_c 4.321(1)
_cell_angle_alpha 90
_cell_angle_beta 90
_cell_angle_gamma 90
_cell_volume 474.44
_cell_formula_units_Z 4
_symmetry_space_group_name_H-M 'C m c m'
_symmetry_Int_Tables_number 63
_refine_ls_R_factor_all 0.021
loop_
_symmetry_equiv_pos_site_id
_symmetry_equiv_pos_as_xyz
1 '-x, y, -z+1/2'
2 '-x, -y, z+1/2'
3 '-x, y, z'
4 '-x, -y, -z'
5 'x, -y, z+1/2'
6 'x, y, -z+1/2'
7 'x, -y, -z'
8 'x, y, z'
9 '-x+1/2, y+1/2, -z+1/2'
10 '-x+1/2, -y+1/2, z+1/2'
11 '-x+1/2, y+1/2, z'
12 '-x+1/2, -y+1/2, -z'
13 'x+1/2, -y+1/2, z+1/2'
14 'x+1/2, y+1/2, -z+1/2'
15 'x+1/2, -y+1/2, -z'
16 'x+1/2, y+1/2, z'
loop_
_atom_type_symbol
_atom_type_oxidation_number
La0+ 0
Se0+ 0
Te0+ 0
loop_
_atom_site_label
_atom_site_type_symbol
_atom_site_symmetry_multiplicity
_atom_site_Wyckoff_symbol
_atom_site_fract_x
_atom_site_fract_y
_atom_site_fract_z
_atom_site_B_iso_or_equiv
_atom_site_occupancy
_atom_site_attached_hydrogens
La1 La0+ 4 c 0 0.176679(17) 0.25 0.00982(13) 1 0
Se1 Se0+ 4 c 0 0.29663(3) 0.25 0.0099(2) 1 0
Te1 Te0+ 4 c 0 -0.071639(19) 0.25 0.01439(17) 1 0
Te2 Te0+ 4 c 0 0.571816(19) 0.25 0.01417(17) 1 0
loop_
_atom_site_aniso_label
_atom_site_aniso_type_symbol
_atom_site_aniso_U_11
_atom_site_aniso_U_22
_atom_site_aniso_U_33
_atom_site_aniso_U_12
_atom_site_aniso_U_13
_atom_site_aniso_U_23
La1 La0+ 0.0088(2) 0.0126(2) 0.0081(2) 0 0 0
Se1 Se0+ 0.0093(4) 0.0120(3) 0.0085(3) 0 0 0
Te1 Te0+ 0.0167(3) 0.0154(3) 0.0111(3) 0 0 0
Te2 Te0+ 0.0154(3) 0.0154(3) 0.0118(3) 0 0 0
#End of TTdata_413171-ICSD