
#(C) 2017 by FIZ Karlsruhe - Leibniz Institute for Information Infrastructure.  All rights reserved.
data_413230-ICSD
_database_code_ICSD 413230
_audit_creation_date 2004-10-01
_chemical_name_systematic 'Palladium bis(tetraiodogallate)'
_chemical_formula_structural 'Pd (Ga I4)2'
_chemical_formula_sum 'Ga2 I8 Pd1'
_chemical_name_structure_type Zr(MoO4)2
_exptl_crystal_density_diffrn 4.8
_cell_measurement_temperature 299.
_publ_section_title

;
Synthesis and crystal structures of new palladium(II) - gallium(III) complexes
with bridging halogenide ligands
;
loop_
_citation_id
_citation_journal_full
_citation_year
_citation_journal_volume
_citation_page_first
_citation_page_last
_citation_journal_id_ASTM
primary 'Zeitschrift fuer Anorganische und Allgemeine Chemie (1950) (DE)' 2004
630 324 326 ZAACAB
loop_
_publ_author_name
'Gorlov, M.'
'Fischer, A.'
'Kloo, L.'
_cell_length_a 13.631(11)
_cell_length_b 8.499(4)
_cell_length_c 7.566(7)
_cell_angle_alpha 90.
_cell_angle_beta 95.38(3)
_cell_angle_gamma 90.
_cell_volume 872.66
_cell_formula_units_Z 2
_symmetry_space_group_name_H-M 'C 1 2/m 1'
_symmetry_Int_Tables_number 12
_refine_ls_R_factor_all 0.0358
loop_
_symmetry_equiv_pos_site_id
_symmetry_equiv_pos_as_xyz
1 '-x, y, -z'
2 '-x, -y, -z'
3 'x, -y, z'
4 'x, y, z'
5 '-x+1/2, y+1/2, -z'
6 '-x+1/2, -y+1/2, -z'
7 'x+1/2, -y+1/2, z'
8 'x+1/2, y+1/2, z'
loop_
_atom_type_symbol
_atom_type_oxidation_number
Pd2+ 2
I1- -1
Ga3+ 3
I1- -1
loop_
_atom_site_label
_atom_site_type_symbol
_atom_site_symmetry_multiplicity
_atom_site_Wyckoff_symbol
_atom_site_fract_x
_atom_site_fract_y
_atom_site_fract_z
_atom_site_B_iso_or_equiv
_atom_site_occupancy
_atom_site_attached_hydrogens
Pd1 Pd2+ 2 a 0 0 0 0.0292(6) 1. 0
I1 I1- 8 j 0.11461(7) 0.21841(12) 0.14774(13) 0.0384(4) 1. 0
I2 I1- 4 i 0.16089(13) 0 0.6490(2) 0.0518(5) 1. 0
Ga1 Ga3+ 4 i 0.20874(16) 0 0.3397(3) 0.0339(6) 1. 0
I3 I1- 4 i 0.38771(10) 0 0.3135(2) 0.0496(5) 1. 0
loop_
_atom_site_aniso_label
_atom_site_aniso_type_symbol
_atom_site_aniso_U_11
_atom_site_aniso_U_22
_atom_site_aniso_U_33
_atom_site_aniso_U_12
_atom_site_aniso_U_13
_atom_site_aniso_U_23
Pd1 Pd2+ 0.0232(12) 0.0366(14) 0.0264(14) 0 -.0048(9) 0
I1 I1- 0.0330(6) 0.0368(6) 0.0425(8) -.0017(5) -.0118(4) 0.0021(5)
I2 I1- 0.0624(11) 0.0630(11) 0.0307(10) 0 0.0086(7) 0
Ga1 Ga3+ 0.0279(12) 0.0434(15) 0.0294(15) 0 -.0020(9) 0
I3 I1- 0.0242(8) 0.0575(11) 0.0661(12) 0 -.0003(6) 0
#End of TTdata_413230-ICSD