
#(C) 2017 by FIZ Karlsruhe - Leibniz Institute for Information Infrastructure.  All rights reserved.
data_413229-ICSD
_database_code_ICSD 413229
_audit_creation_date 2004-10-01
_chemical_name_systematic 'Palladium bis(tetrabromogallate)'
_chemical_formula_structural 'Pd (Ga Br4)2'
_chemical_formula_sum 'Br8 Ga2 Pd1'
_chemical_name_structure_type Zr(MoO4)2
_exptl_crystal_density_diffrn 3.99
_cell_measurement_temperature 299.
_publ_section_title

;
Synthesis and crystal structures of new palladium(II) - gallium(III) complexes
with bridging halogenide ligands
;
loop_
_citation_id
_citation_journal_full
_citation_year
_citation_journal_volume
_citation_page_first
_citation_page_last
_citation_journal_id_ASTM
primary 'Zeitschrift fuer Anorganische und Allgemeine Chemie (1950) (DE)' 2004
630 324 326 ZAACAB
loop_
_publ_author_name
'Gorlov, M.'
'Fischer, A.'
'Kloo, L.'
_cell_length_a 12.67(2)
_cell_length_b 8.076(14)
_cell_length_c 7.215(11)
_cell_angle_alpha 90.
_cell_angle_beta 94.47(13)
_cell_angle_gamma 90.
_cell_volume 736.01
_cell_formula_units_Z 2
_symmetry_space_group_name_H-M 'C 1 2/m 1'
_symmetry_Int_Tables_number 12
_refine_ls_R_factor_all 0.0428
loop_
_symmetry_equiv_pos_site_id
_symmetry_equiv_pos_as_xyz
1 '-x, y, -z'
2 '-x, -y, -z'
3 'x, -y, z'
4 'x, y, z'
5 '-x+1/2, y+1/2, -z'
6 '-x+1/2, -y+1/2, -z'
7 'x+1/2, -y+1/2, z'
8 'x+1/2, y+1/2, z'
loop_
_atom_type_symbol
_atom_type_oxidation_number
Pd2+ 2
Br1- -1
Ga3+ 3
Br1- -1
loop_
_atom_site_label
_atom_site_type_symbol
_atom_site_symmetry_multiplicity
_atom_site_Wyckoff_symbol
_atom_site_fract_x
_atom_site_fract_y
_atom_site_fract_z
_atom_site_B_iso_or_equiv
_atom_site_occupancy
_atom_site_attached_hydrogens
Pd1 Pd2+ 2 a 0 0 0 0.0426(5) 1. 0
Br1 Br1- 8 j 0.11551(10) 0.21362(15) 0.15066(16) 0.0552(4) 1. 0
Ga1 Ga3+ 4 i 0.21083(15) 0 0.3319(2) 0.0467(5) 1. 0
Br2 Br1- 4 i 0.1660(2) 0 0.6329(3) 0.0734(7) 1. 0
Br3 Br1- 4 i 0.38762(16) 0 0.2957(3) 0.0709(6) 1. 0
loop_
_atom_site_aniso_label
_atom_site_aniso_type_symbol
_atom_site_aniso_U_11
_atom_site_aniso_U_22
_atom_site_aniso_U_33
_atom_site_aniso_U_12
_atom_site_aniso_U_13
_atom_site_aniso_U_23
Pd1 Pd2+ 0.0351(10) 0.0456(11) 0.0456(12) 0 -.0065(7) 0
Br1 Br1- 0.0485(7) 0.0464(7) 0.0670(9) -.0019(6) -.0183(5) 0.0016(5)
Ga1 Ga3+ 0.0402(11) 0.0534(12) 0.0449(12) 0 -.0070(7) 0
Br2 Br1- 0.0778(15) 0.0933(17) 0.0492(12) 0 0.0060(9) 0
Br3 Br1- 0.0382(11) 0.0766(15) 0.0967(16) 0 -.0018(8) 0
#End of TTdata_413229-ICSD