
#(C) 2017 by FIZ Karlsruhe - Leibniz Institute for Information Infrastructure.  All rights reserved.
data_413701-ICSD
_database_code_ICSD 413701
_audit_creation_date 2005-04-01
_audit_update_record 2010-02-01
_chemical_name_systematic 'Strontium cadmium antimonide (11/6/12)'
_chemical_formula_structural 'Sr11 Cd6 Sb12'
_chemical_formula_sum 'Cd6 Sb12 Sr11'
_chemical_name_structure_type Cd6Sr11Sb12
_exptl_crystal_density_diffrn 5.53
_cell_measurement_temperature 233.
_publ_section_title
'Sr11 Cd6 Sb12: A new Zintl compound with infinite chains of pentagonal tubes'
loop_
_citation_id
_citation_journal_full
_citation_year
_citation_journal_volume
_citation_page_first
_citation_page_last
_citation_journal_id_ASTM
primary 'Journal of Solid State Chemistry' 2004 177 3418 3422 JSSCBI
loop_
_publ_author_name
'Park, S.-M.'
'Kim, S.-J.'
_cell_length_a 32.903(3)
_cell_length_b 4.7666(5)
_cell_length_c 12.6057(13)
_cell_angle_alpha 90.
_cell_angle_beta 109.752(2)
_cell_angle_gamma 90.
_cell_volume 1860.7
_cell_formula_units_Z 2
_symmetry_space_group_name_H-M 'C 1 2/m 1'
_symmetry_Int_Tables_number 12
_refine_ls_R_factor_all 0.0637
loop_
_symmetry_equiv_pos_site_id
_symmetry_equiv_pos_as_xyz
1 '-x, y, -z'
2 '-x, -y, -z'
3 'x, -y, z'
4 'x, y, z'
5 '-x+1/2, y+1/2, -z'
6 '-x+1/2, -y+1/2, -z'
7 'x+1/2, -y+1/2, z'
8 'x+1/2, y+1/2, z'
loop_
_atom_type_symbol
_atom_type_oxidation_number
Sb0+ 0
Cd0+ 0
Sr0+ 0
loop_
_atom_site_label
_atom_site_type_symbol
_atom_site_symmetry_multiplicity
_atom_site_Wyckoff_symbol
_atom_site_fract_x
_atom_site_fract_y
_atom_site_fract_z
_atom_site_B_iso_or_equiv
_atom_site_occupancy
_atom_site_attached_hydrogens
Sb1 Sb0+ 4 i 0.30874(4) 0. 0.46770(9) 0.0090(2) 1 0
Sb2 Sb0+ 4 i 0.08945(3) 0. 0.23308(9) 0.0090(2) 1 0
Sb3 Sb0+ 4 i 0.35063(3) -0.5 0.21730(9) 0.0081(2) 1 0
Sb4 Sb0+ 4 i 0.45705(3) -1. 0.49853(9) 0.0084(2) 1 0
Sb5 Sb0+ 4 i 0.20504(3) -0.5 0.13557(9) 0.0087(2) 1 0
Sb6 Sb0+ 4 i 0.45379(3) -1. 0.11636(9) 0.0082(2) 1 0
Cd1 Cd0+ 4 i 0.39965(4) -1. 0.25413(10) 0.0112(3) 1 0
Cd2 Cd0+ 4 i 0.28101(4) -0.5 0.33260(10) 0.0121(3) 1 0
Cd3 Cd0+ 4 i 0.04770(4) -0.5 0.24460(12) 0.0157(3) 1 0
Sr1 Sr0+ 4 i 0.48135(5) -0.5 0.31886(13) 0.0102(3) 1 0
Sr2 Sr0+ 4 i 0.19972(5) 0. 0.34273(13) 0.0114(3) 1 0
Sr3 Sr0+ 4 i 0.38625(5) -0.5 0.49381(12) 0.0093(3) 1 0
Sr4 Sr0+ 4 i 0.27852(5) 0. 0.13263(14) 0.0117(3) 1 0
Sr5 Sr0+ 2 a 0. 0. 0. 0.0093(4) 1 0
Sr6 Sr0+ 4 i 0.12601(5) 0. 0.01638(13) 0.0106(3) 1 0
loop_
_atom_site_aniso_label
_atom_site_aniso_type_symbol
_atom_site_aniso_U_11
_atom_site_aniso_U_22
_atom_site_aniso_U_33
_atom_site_aniso_U_12
_atom_site_aniso_U_13
_atom_site_aniso_U_23
Sb1 Sb0+ 0.0105(5) 0.0095(5) 0.0060(5) 0. 0.0016(4) 0.
Sb2 Sb0+ 0.0090(5) 0.0133(6) 0.0045(5) 0. 0.0019(4) 0.
Sb3 Sb0+ 0.0091(5) 0.0097(5) 0.0057(5) 0. 0.0027(4) 0.
Sb4 Sb0+ 0.0077(5) 0.0108(5) 0.0061(5) 0. 0.0018(4) 0.
Sb5 Sb0+ 0.0078(5) 0.0106(5) 0.0061(5) 0. 0.0002(4) 0.
Sb6 Sb0+ 0.0085(5) 0.0100(5) 0.0064(5) 0. 0.0029(4) 0.
Cd1 Cd0+ 0.0106(6) 0.0109(6) 0.0119(6) 0. 0.0038(5) 0.
Cd2 Cd0+ 0.0127(6) 0.0132(6) 0.0071(5) 0. -0.0009(5) 0.
Cd3 Cd0+ 0.0142(6) 0.0119(6) 0.0199(7) 0. 0.0043(5) 0.
Sr1 Sr0+ 0.0153(8) 0.0090(8) 0.0053(7) 0. 0.0020(6) 0.
Sr2 Sr0+ 0.0089(7) 0.0176(9) 0.0076(7) 0. 0.0024(6) 0.
Sr3 Sr0+ 0.0086(7) 0.0140(8) 0.0052(7) 0. 0.0022(6) 0.
Sr4 Sr0+ 0.0105(7) 0.0112(8) 0.0133(7) 0. 0.0039(6) 0.
Sr5 Sr0+ 0.0096(10) 0.0132(11) 0.0060(9) 0. 0.0037(8) 0.
Sr6 Sr0+ 0.0100(7) 0.0164(8) 0.0065(7) 0. 0.0041(6) 0.
#End of TTdata_413701-ICSD