
#(C) 2017 by FIZ Karlsruhe - Leibniz Institute for Information Infrastructure.  All rights reserved.
data_414234-ICSD
_database_code_ICSD 414234
_audit_creation_date 2005-10-01
_audit_update_record 2013-02-01
_chemical_name_systematic 'Strontium indide'
_chemical_formula_structural 'Sr In'
_chemical_formula_sum 'In1 Sr1'
_exptl_crystal_density_diffrn 4.79
_publ_section_title

;
Binaere Indide A In(x) (x = 1, 2, 4; A = Ca, Sr, Ba, K, Rb): Untersuchungen zu
Strukturchemie und chemischer Bindung
;
loop_
_citation_id
_citation_journal_full
_citation_year
_citation_journal_volume
_citation_page_first
_citation_page_last
_citation_journal_id_ASTM
primary 'Zeitschrift fuer Anorganische und Allgemeine Chemie (1950) (DE)' 2005
631 338 349 ZAACAB
loop_
_publ_author_name
'Wendorff, M.'
'Roehr, C.'
_cell_length_a 10.23(3)
_cell_length_b 26.14(7)
_cell_length_c 8.40(2)
_cell_angle_alpha 90.
_cell_angle_beta 90.
_cell_angle_gamma 90.
_cell_volume 2246.26
_cell_formula_units_Z 32
_symmetry_space_group_name_H-M 'F d d 2'
_symmetry_Int_Tables_number 43
_refine_ls_R_factor_all 0.162
loop_
_symmetry_equiv_pos_site_id
_symmetry_equiv_pos_as_xyz
1 'x+1/4, -y+1/4, z+1/4'
2 '-x+1/4, y+1/4, z+1/4'
3 '-x, -y, z'
4 'x, y, z'
5 'x+1/4, -y+3/4, z+3/4'
6 '-x+1/4, y+3/4, z+3/4'
7 '-x, -y+1/2, z+1/2'
8 'x, y+1/2, z+1/2'
9 'x+3/4, -y+1/4, z+3/4'
10 '-x+3/4, y+1/4, z+3/4'
11 '-x+1/2, -y, z+1/2'
12 'x+1/2, y, z+1/2'
13 'x+3/4, -y+3/4, z+1/4'
14 '-x+3/4, y+3/4, z+1/4'
15 '-x+1/2, -y+1/2, z'
16 'x+1/2, y+1/2, z'
loop_
_atom_type_symbol
_atom_type_oxidation_number
Sr0+ 0
In0+ 0
loop_
_atom_site_label
_atom_site_type_symbol
_atom_site_symmetry_multiplicity
_atom_site_Wyckoff_symbol
_atom_site_fract_x
_atom_site_fract_y
_atom_site_fract_z
_atom_site_B_iso_or_equiv
_atom_site_occupancy
_atom_site_attached_hydrogens
Sr1 Sr0+ 16 b 0.1003(8) 0.1726(5) 0.236(2) 0.042(4) 1 0
Sr2 Sr0+ 16 b 0.4005(8) 0.0714(4) 0.000(2) 0.039(4) 1 0
In1 In0+ 16 b 0.1222(7) 0.2875(3) 0.0357(6) 0.029(3) 1 0
In2 In0+ 16 b 0.1229(7) 0.0341(3) 0.1943(12) 0.045(4) 1 0
loop_
_atom_site_aniso_label
_atom_site_aniso_type_symbol
_atom_site_aniso_U_11
_atom_site_aniso_U_22
_atom_site_aniso_U_33
_atom_site_aniso_U_12
_atom_site_aniso_U_13
_atom_site_aniso_U_23
Sr1 Sr0+ 0.002(4) 0.076(9) 0.050(8) -0.005(4) 0.001(6) -0.009(8)
Sr2 Sr0+ 0.019(5) 0.034(6) 0.065(10) 0.006(4) -0.001(7) 0.027(7)
In1 In0+ 0.004(3) 0.057(6) 0.026(4) 0.005(3) 0.003(4) 0.009(4)
In2 In0+ 0.003(3) 0.056(6) 0.075(9) 0.002(3) -0.005(5) 0.005(5)
#End of TTdata_414234-ICSD