
data_414423-ICSD
_database_code_ICSD 414423
_audit_creation_date 2005-10-01
_audit_update_record 2006-10-01
_chemical_name_systematic 'Aluminium lanthanum (13/16)'
_chemical_formula_structural 'Al13 La16'
_chemical_formula_sum 'Al13 La16'
_exptl_crystal_density_diffrn 5.23
_cell_length_a 9.166(1)
_cell_length_b 9.166(1)
_cell_length_c 11.224(3)
_cell_angle_alpha 90.
_cell_angle_beta 90.
_cell_angle_gamma 120.
_cell_volume 816.65
_cell_formula_units_Z 1
_symmetry_space_group_name_H-M 'P -6 2 m'
_symmetry_Int_Tables_number 189
_refine_ls_R_factor_all 0.0299
loop_
_symmetry_equiv_pos_site_id
_symmetry_equiv_pos_as_xyz
1 '-x, -x+y, -z'
2 'x-y, -y, -z'
3 'y, x, -z'
4 '-x, -x+y, z'
5 'x-y, -y, z'
6 'y, x, z'
7 '-x+y, -x, -z'
8 '-y, x-y, -z'
9 'x, y, -z'
10 '-x+y, -x, z'
11 '-y, x-y, z'
12 'x, y, z'
loop_
_atom_type_symbol
_atom_type_oxidation_number
La0+ 0
Al0+ 0
loop_
_atom_site_label
_atom_site_type_symbol
_atom_site_symmetry_multiplicity
_atom_site_Wyckoff_symbol
_atom_site_fract_x
_atom_site_fract_y
_atom_site_fract_z
_atom_site_B_iso_or_equiv
_atom_site_occupancy
_atom_site_attached_hydrogens
La1 La0+ 3 f 0.26053(4) 0. 0. 0.01315(6) 1 0
La2 La0+ 3 g 0.23049(3) 0.23049(3) 0.5 0.00953(5) 1 0
La3 La0+ 4 h 0.3333 0.6667 0.66197(2) 0.01009(5) 1 0
La4 La0+ 6 i 0.38572(3) 0.38572(3) 0.163757(16) 0.01327(5) 1 0
Al1 Al0+ 2 c 0.3333 0.6667 0. 0.0123(3) 1 0
Al2 Al0+ 2 e 0. 0. 0.23615(19) 0.0121(3) 1 0
Al3 Al0+ 3 g 0.4208(2) 0. 0.5 0.0105(3) 1 0
Al4 Al0+ 6 i 0.28562(15) 0. 0.29005(9) 0.01074(19) 1 0
loop_
_atom_site_aniso_label
_atom_site_aniso_type_symbol
_atom_site_aniso_U_11
_atom_site_aniso_U_22
_atom_site_aniso_U_33
_atom_site_aniso_U_12
_atom_site_aniso_U_13
_atom_site_aniso_U_23
La1 La0+ 0.01393(10) 0.01136(13) 0.01330(9) 0.00568(7) 0. 0.
La2 La0+ 0.00966(8) 0.00966(8) 0.01042(8) 0.00570(9) 0. 0.
La3 La0+ 0.00946(6) 0.00946(6) 0.01133(7) 0.00473(3) 0. 0.
La4 La0+ 0.01324(7) 0.01324(7) 0.01165(7) 0.00535(8) -0.00021(5) -0.00021(5)
Al1 Al0+ 0.0111(5) 0.0111(5) 0.0148(7) 0.0055(3) 0. 0.
Al2 Al0+ 0.0107(5) 0.0107(5) 0.0151(8) 0.0053(3) 0. 0.
Al3 Al0+ 0.0095(5) 0.0099(7) 0.0122(5) 0.0049(4) 0. 0.
Al4 Al0+ 0.0108(4) 0.0122(5) 0.0097(3) 0.0061(3) -0.0004(3) 0.
