
#(C) 2017 by FIZ Karlsruhe - Leibniz Institute for Information Infrastructure.  All rights reserved.
data_414506-ICSD
_database_code_ICSD 414506
_audit_creation_date 2007-04-01
_chemical_name_systematic 'Scandium rhodium indide (5/2/4)'
_chemical_formula_structural 'Sc5 Rh2 In4'
_chemical_formula_sum 'In4 Rh2 Sc5'
_chemical_name_structure_type Hf5Rh2In4
_exptl_crystal_density_diffrn 6.59
_publ_section_title

;
Syntheses and structures of the scandium-rich indides Sc5 Ni2 In4 and Sc5 Rh2
In4
;
loop_
_citation_id
_citation_journal_full
_citation_year
_citation_journal_volume
_citation_page_first
_citation_page_last
_citation_journal_id_ASTM
primary 'Heteroatom Chemistry' 2005 16 364 368 HETCE8
loop_
_publ_author_name
'Lukachuk, M.'
'Heying, B.'
'Rodewald, U.C.'
'Poettgen, R.'
_cell_length_a 17.543(3)
_cell_length_b 7.650(1)
_cell_length_c 3.3297(6)
_cell_angle_alpha 90.
_cell_angle_beta 90.
_cell_angle_gamma 90.
_cell_volume 446.86
_cell_formula_units_Z 2
_symmetry_space_group_name_H-M 'P b a m'
_symmetry_Int_Tables_number 55
_refine_ls_R_factor_all 0.0186
loop_
_symmetry_equiv_pos_site_id
_symmetry_equiv_pos_as_xyz
1 'x+1/2, -y+1/2, z'
2 '-x+1/2, y+1/2, z'
3 'x, y, -z'
4 '-x, -y, -z'
5 '-x+1/2, y+1/2, -z'
6 'x+1/2, -y+1/2, -z'
7 '-x, -y, z'
8 'x, y, z'
loop_
_atom_type_symbol
_atom_type_oxidation_number
Sc0+ 0
Rh0+ 0
In0+ 0
loop_
_atom_site_label
_atom_site_type_symbol
_atom_site_symmetry_multiplicity
_atom_site_Wyckoff_symbol
_atom_site_fract_x
_atom_site_fract_y
_atom_site_fract_z
_atom_site_B_iso_or_equiv
_atom_site_occupancy
_atom_site_attached_hydrogens
Sc1 Sc0+ 2 a 0. 1. 0. 0.00871(14) 1 0
Sc2 Sc0+ 4 g 0.22062(4) 0.25443(9) 0. 0.00994(11) 1 0
Sc3 Sc0+ 4 g 0.41546(4) 0.12507(8) 0. 0.00881(11) 1 0
Rh1 Rh0+ 4 h 0.305685(14) 0.03729(3) 0.5 0.00882(6) 1 0
In1 In0+ 4 h 0.567387(14) 0.20326(3) 0.5 0.00923(6) 1 0
In2 In0+ 4 h 0.850262(14) 0.06934(3) 0.5 0.00961(6) 1 0
loop_
_atom_site_aniso_label
_atom_site_aniso_type_symbol
_atom_site_aniso_U_11
_atom_site_aniso_U_22
_atom_site_aniso_U_33
_atom_site_aniso_U_12
_atom_site_aniso_U_13
_atom_site_aniso_U_23
Sc1 Sc0+ 0.0091(3) 0.0076(3) 0.0094(3) -0.0002(3) 0. 0.
Sc2 Sc0+ 0.0100(2) 0.0117(3) 0.0081(2) 0.0002(2) 0. 0.
Sc3 Sc0+ 0.0099(2) 0.0078(2) 0.0086(2) 0.00042(18) 0. 0.
Rh1 Rh0+ 0.00724(10) 0.00881(10) 0.01042(11) -0.00004(8) 0. 0.
In1 In0+ 0.00904(10) 0.00805(9) 0.01062(10) 0.00136(7) 0. 0.
In2 In0+ 0.00829(9) 0.00913(10) 0.01141(10) -0.00027(7) 0. 0.
#End of TTdata_414506-ICSD