
#(C) 2017 by FIZ Karlsruhe - Leibniz Institute for Information Infrastructure.  All rights reserved.
data_41556-ICSD
_database_code_ICSD 41556
_audit_creation_date 1999-11-30
_audit_update_record 2005-10-01
_chemical_name_systematic 'Cobalt manganese phosphide (1/1/1)'
_chemical_formula_structural 'Co Mn P'
_chemical_formula_sum 'Co1 Mn1 P1'
_chemical_name_structure_type TiNiSi-MgSrSi
_exptl_crystal_density_diffrn 6.89
_publ_section_title 'Etude structurale et magnetique de Co Mn P'
loop_
_citation_id
_citation_journal_full
_citation_year
_citation_journal_volume
_citation_page_first
_citation_page_last
_citation_journal_id_ASTM
primary 'Physica Status Solidi A - Applications and Materials' 1980 57 675 682
PSSABA
loop_
_publ_author_name
'Fruchart, D.'
'Martin-Farrugia, C.'
'Rouault, A.'
'Senateur, J.P.'
_cell_length_a 5.96
_cell_length_b 3.49
_cell_length_c 6.717
_cell_angle_alpha 90.
_cell_angle_beta 90.
_cell_angle_gamma 90.
_cell_volume 139.72
_cell_formula_units_Z 4
_symmetry_space_group_name_H-M 'P n m a'
_symmetry_Int_Tables_number 62
_refine_ls_R_factor_all 0.071
loop_
_symmetry_equiv_pos_site_id
_symmetry_equiv_pos_as_xyz
1 'x+1/2, y, -z+1/2'
2 'x, -y+1/2, z'
3 '-x+1/2, y+1/2, z+1/2'
4 '-x, -y, -z'
5 '-x+1/2, -y, z+1/2'
6 '-x, y+1/2, -z'
7 'x+1/2, -y+1/2, -z+1/2'
8 'x, y, z'
loop_
_atom_type_symbol
_atom_type_oxidation_number
Co0+ 0
Mn0+ 0
P0+ 0
loop_
_atom_site_label
_atom_site_type_symbol
_atom_site_symmetry_multiplicity
_atom_site_Wyckoff_symbol
_atom_site_fract_x
_atom_site_fract_y
_atom_site_fract_z
_atom_site_B_iso_or_equiv
_atom_site_occupancy
_atom_site_attached_hydrogens
Co1 Co0+ 4 c 0.1398(24) 0.25 0.4379(26) 0.28 1. 0
Mn1 Mn0+ 4 c 0.0310(32) 0.25 0.8384(27) 0.55 1. 0
P1 P0+ 4 c 0.7819(52) 0.25 0.3675(44) 0.55 1. 0
#End of TTdata_41556-ICSD