
#(C) 2017 by FIZ Karlsruhe - Leibniz Institute for Information Infrastructure.  All rights reserved.
data_415728-ICSD
_database_code_ICSD 415728
_audit_creation_date 2007-04-01
_audit_update_record 2011-02-01
_chemical_name_systematic 'Lanthanum lithium dibismuthide'
_chemical_formula_structural 'La Li Bi2'
_chemical_formula_sum 'Bi2 La1 Li1'
_chemical_name_structure_type ZrCuSiAs-CuHfSi2
_exptl_crystal_density_diffrn 8.33
_publ_section_title
'Synthesis and crystal structures of La3 Mg Bi5 and La Li Bi2'
loop_
_citation_id
_citation_journal_full
_citation_year
_citation_journal_volume
_citation_page_first
_citation_page_last
_citation_journal_id_ASTM
primary 'Journal of Solid State Chemistry' 2006 179 1016 1021 JSSCBI
loop_
_publ_author_name
'Pan, D.-C.'
'Sun, Z.-M.'
'Mao, J.-G.'
_cell_length_a 4.5206(4)
_cell_length_b 4.5206(4)
_cell_length_c 10.9942(19)
_cell_angle_alpha 90.
_cell_angle_beta 90.
_cell_angle_gamma 90.
_cell_volume 224.68
_cell_formula_units_Z 2
_symmetry_space_group_name_H-M 'P 4/n m m Z'
_symmetry_Int_Tables_number 129
_refine_ls_R_factor_all 0.0296
loop_
_symmetry_equiv_pos_site_id
_symmetry_equiv_pos_as_xyz
1 'y+1/2, x+1/2, -z'
2 '-y, x+1/2, -z'
3 'y+1/2, -x, -z'
4 '-y, -x, -z'
5 'x+1/2, y+1/2, -z'
6 '-x, y+1/2, -z'
7 'x+1/2, -y, -z'
8 '-x, -y, -z'
9 '-y+1/2, -x+1/2, z'
10 'y, -x+1/2, z'
11 '-y+1/2, x, z'
12 'y, x, z'
13 '-x+1/2, -y+1/2, z'
14 'x, -y+1/2, z'
15 '-x+1/2, y, z'
16 'x, y, z'
loop_
_atom_type_symbol
_atom_type_oxidation_number
La0+ 0
Li0+ 0
Bi0+ 0
loop_
_atom_site_label
_atom_site_type_symbol
_atom_site_symmetry_multiplicity
_atom_site_Wyckoff_symbol
_atom_site_fract_x
_atom_site_fract_y
_atom_site_fract_z
_atom_site_B_iso_or_equiv
_atom_site_occupancy
_atom_site_attached_hydrogens
La1 La0+ 2 c 0.25 0.25 0.73829(13) 0.0035(4) 1 0
Li1 Li0+ 2 a 0.75 0.25 0. 0.035(17) 1 0
Bi1 Bi0+ 2 c 0.25 0.25 0.16198(9) 0.0054(4) 1 0
Bi2 Bi0+ 2 b 0.75 0.25 0.5 0.0055(4) 1 0
loop_
_atom_site_aniso_label
_atom_site_aniso_type_symbol
_atom_site_aniso_U_11
_atom_site_aniso_U_22
_atom_site_aniso_U_33
_atom_site_aniso_U_12
_atom_site_aniso_U_13
_atom_site_aniso_U_23
La1 La0+ 0.0044(5) 0.0044(5) 0.0017(6) 0. 0. 0.
Bi1 Bi0+ 0.0041(4) 0.0041(4) 0.0079(5) 0. 0. 0.
Bi2 Bi0+ 0.0063(5) 0.0063(5) 0.0037(5) 0. 0. 0.
#End of TTdata_415728-ICSD