
#(C) 2017 by FIZ Karlsruhe - Leibniz Institute for Information Infrastructure.  All rights reserved.
data_415893-ICSD
_database_code_ICSD 415893
_audit_creation_date 2007-08-01
_chemical_name_systematic 'Pentasilver hexaoxoiodate(VII)'
_chemical_formula_structural 'Ag5 (I O6)'
_chemical_formula_sum 'Ag5 I1 O6'
_chemical_name_structure_type Sr6NGa5
_exptl_crystal_density_diffrn 7.74
_publ_section_title

;
Synthesis, crystal structure determination, and physical properties of Ag5 I
O6
;
loop_
_citation_id
_citation_journal_full
_citation_year
_citation_journal_volume
_citation_page_first
_citation_page_last
_citation_journal_id_ASTM
primary 'Zeitschrift fuer Anorganische und Allgemeine Chemie (1950) (DE)' 2006
632 577 581 ZAACAB
loop_
_publ_author_name
'Kovalevskiy, A.'
'Jansen, M.'
_cell_length_a 5.93660(10)
_cell_length_b 5.93660(10)
_cell_length_c 32.1471(6)
_cell_angle_alpha 90.
_cell_angle_beta 90.
_cell_angle_gamma 120.
_cell_volume 981.18
_cell_formula_units_Z 6
_symmetry_space_group_name_H-M 'R -3 c H'
_symmetry_Int_Tables_number 167
_refine_ls_R_factor_all 0.0288
loop_
_symmetry_equiv_pos_site_id
_symmetry_equiv_pos_as_xyz
1 'x-y, -y, -z+1/2'
2 '-x, -x+y, -z+1/2'
3 'y, x, -z+1/2'
4 'x-y, x, -z'
5 'y, -x+y, -z'
6 '-x, -y, -z'
7 '-x+y, y, z+1/2'
8 'x, x-y, z+1/2'
9 '-y, -x, z+1/2'
10 '-x+y, -x, z'
11 '-y, x-y, z'
12 'x, y, z'
13 'x-y+2/3, -y+1/3, -z+5/6'
14 '-x+2/3, -x+y+1/3, -z+5/6'
15 'y+2/3, x+1/3, -z+5/6'
16 'x-y+2/3, x+1/3, -z+1/3'
17 'y+2/3, -x+y+1/3, -z+1/3'
18 '-x+2/3, -y+1/3, -z+1/3'
19 '-x+y+2/3, y+1/3, z+5/6'
20 'x+2/3, x-y+1/3, z+5/6'
21 '-y+2/3, -x+1/3, z+5/6'
22 '-x+y+2/3, -x+1/3, z+1/3'
23 '-y+2/3, x-y+1/3, z+1/3'
24 'x+2/3, y+1/3, z+1/3'
25 'x-y+1/3, -y+2/3, -z+1/6'
26 '-x+1/3, -x+y+2/3, -z+1/6'
27 'y+1/3, x+2/3, -z+1/6'
28 'x-y+1/3, x+2/3, -z+2/3'
29 'y+1/3, -x+y+2/3, -z+2/3'
30 '-x+1/3, -y+2/3, -z+2/3'
31 '-x+y+1/3, y+2/3, z+1/6'
32 'x+1/3, x-y+2/3, z+1/6'
33 '-y+1/3, -x+2/3, z+1/6'
34 '-x+y+1/3, -x+2/3, z+2/3'
35 '-y+1/3, x-y+2/3, z+2/3'
36 'x+1/3, y+2/3, z+2/3'
loop_
_atom_type_symbol
_atom_type_oxidation_number
I7+ 7
Ag1+ 1
O2- -2
loop_
_atom_site_label
_atom_site_type_symbol
_atom_site_symmetry_multiplicity
_atom_site_Wyckoff_symbol
_atom_site_fract_x
_atom_site_fract_y
_atom_site_fract_z
_atom_site_B_iso_or_equiv
_atom_site_occupancy
_atom_site_attached_hydrogens
I1 I7+ 6 b 0. 0. 0. 0.0086(2) 1 0
Ag1 Ag1+ 18 e 0.30460(9) 0. 0.25 0.0204(2) 1 0
Ag2 Ag1+ 12 c 0. 0. 0.15546(3) 0.0211(2) 1 0
O1 O2- 36 f 0.2779(6) 0.0330(6) 0.03410(11) 0.0155(6) 1 0
loop_
_atom_site_aniso_label
_atom_site_aniso_type_symbol
_atom_site_aniso_U_11
_atom_site_aniso_U_22
_atom_site_aniso_U_33
_atom_site_aniso_U_12
_atom_site_aniso_U_13
_atom_site_aniso_U_23
I1 I7+ 0.0082(2) 0.0082(2) 0.0093(3) 0.00412(12) 0. 0.
Ag1 Ag1+ 0.0235(3) 0.0194(3) 0.0171(3) 0.00970(14) -0.00343(9) -0.00687(19)
Ag2 Ag1+ 0.0140(2) 0.0140(2) 0.0354(4) 0.00698(12) 0. 0.
O1 O2- 0.0147(15) 0.0186(17) 0.0158(13) 0.0102(13) -0.0070(12) -0.0028(13)
#End of TTdata_415893-ICSD