
#(C) 2017 by FIZ Karlsruhe - Leibniz Institute for Information Infrastructure.  All rights reserved.
data_416281-ICSD
_database_code_ICSD 416281
_audit_creation_date 2007-08-01
_chemical_name_systematic 'Disilver(I) heptaoxoditellurate(VI)'
_chemical_formula_structural 'Ag2 (Te2 O7)'
_chemical_formula_sum 'Ag2 O7 Te2'
_chemical_name_structure_type Ca2Sb2O7
_exptl_crystal_density_diffrn 6.91
_publ_section_title 'Ag2 Te2 O7, ein neues Silbertellurat mit Weberit-Struktur'
loop_
_citation_id
_citation_journal_full
_citation_year
_citation_journal_volume
_citation_page_first
_citation_page_last
_citation_journal_id_ASTM
primary 'Zeitschrift fuer Anorganische und Allgemeine Chemie (1950) (DE)' 2006
632 1508 1513 ZAACAB
loop_
_publ_author_name
'Klein, W.'
'Curda, J.'
'Peters, E.M.'
'Jansen, M.'
_cell_length_a 7.266(2)
_cell_length_b 10.1430(9)
_cell_length_c 7.6021(17)
_cell_angle_alpha 90.
_cell_angle_beta 90.
_cell_angle_gamma 90.
_cell_volume 560.27
_cell_formula_units_Z 4
_symmetry_space_group_name_H-M 'I m m a'
_symmetry_Int_Tables_number 74
_refine_ls_R_factor_all 0.0889
loop_
_symmetry_equiv_pos_site_id
_symmetry_equiv_pos_as_xyz
1 '-x, y+1/2, -z'
2 '-x, -y+1/2, z'
3 '-x, y, z'
4 '-x, -y, -z'
5 'x, -y+1/2, z'
6 'x, y+1/2, -z'
7 'x, -y, -z'
8 'x, y, z'
9 '-x+1/2, y, -z+1/2'
10 '-x+1/2, -y, z+1/2'
11 '-x+1/2, y+1/2, z+1/2'
12 '-x+1/2, -y+1/2, -z+1/2'
13 'x+1/2, -y, z+1/2'
14 'x+1/2, y, -z+1/2'
15 'x+1/2, -y+1/2, -z+1/2'
16 'x+1/2, y+1/2, z+1/2'
loop_
_atom_type_symbol
_atom_type_oxidation_number
Ag1+ 1
Te6+ 6
O2- -2
loop_
_atom_site_label
_atom_site_type_symbol
_atom_site_symmetry_multiplicity
_atom_site_Wyckoff_symbol
_atom_site_fract_x
_atom_site_fract_y
_atom_site_fract_z
_atom_site_B_iso_or_equiv
_atom_site_occupancy
_atom_site_attached_hydrogens
Ag1 Ag1+ 4 b 0. 0. 0.5 0.0174(7) 1 0
Ag2 Ag1+ 4 c 0.25 0.25 0.25 0.0228(7) 1 0
Te1 Te6+ 4 a 0. 0. 0. 0.0054(6) 1 0
Te2 Te6+ 4 d 0.25 0.25 0.75 0.0063(6) 1 0
O1 O2- 4 e 0. 0.25 0.658(2) 0.019(4) 1 0
O2 O2- 8 h 0. 0.0886(15) 0.209(2) 0.027(4) 1 0
O3 O2- 16 j 0.2975(14) 0.1212(10) 0.5734(14) 0.027(3) 1 0
loop_
_atom_site_aniso_label
_atom_site_aniso_type_symbol
_atom_site_aniso_U_11
_atom_site_aniso_U_22
_atom_site_aniso_U_33
_atom_site_aniso_U_12
_atom_site_aniso_U_13
_atom_site_aniso_U_23
Ag1 Ag1+ 0.0106(13) 0.0228(13) 0.0187(10) 0. 0. -0.0109(9)
Ag2 Ag1+ 0.0192(15) 0.0214(13) 0.0278(13) 0. -0.0031(11) 0.
Te1 Te6+ 0.0038(10) 0.0078(9) 0.0045(8) 0. 0. -0.0028(6)
Te2 Te6+ 0.0042(10) 0.0044(9) 0.0104(8) 0. 0.0008(7) 0.
O1 O2- 0.001(9) 0.033(11) 0.025(10) 0. 0. 0.
O2 O2- 0.017(8) 0.033(8) 0.030(8) 0. 0. -0.002(6)
O3 O2- 0.018(6) 0.033(6) 0.031(6) 0.005(4) -0.005(4) -0.007(5)
#End of TTdata_416281-ICSD