
data_416338-ICSD
_database_code_ICSD 416338
_audit_creation_date 2007-08-01
_chemical_name_systematic 'Pentabarium pentaaluminide stannide'
_chemical_formula_structural 'Ba5 Al5 Sn'
_chemical_formula_sum 'Al5 Ba5 Sn1'
_chemical_name_structure_type Ba5Al5Pb
_exptl_crystal_density_diffrn 4.44
_cell_length_a 6.0505(8)
_cell_length_b 6.0505(8)
_cell_length_c 11.090(2)
_cell_angle_alpha 90.
_cell_angle_beta 90.
_cell_angle_gamma 120.
_cell_volume 351.6
_cell_formula_units_Z 1
_symmetry_space_group_name_H-M 'P -6 m 2'
_symmetry_Int_Tables_number 187
_refine_ls_R_factor_all 0.0141
loop_
_symmetry_equiv_pos_site_id
_symmetry_equiv_pos_as_xyz
1 'x, x-y, -z'
2 '-x+y, y, -z'
3 '-y, -x, -z'
4 'x, x-y, z'
5 '-x+y, y, z'
6 '-y, -x, z'
7 '-x+y, -x, -z'
8 '-y, x-y, -z'
9 'x, y, -z'
10 '-x+y, -x, z'
11 '-y, x-y, z'
12 'x, y, z'
loop_
_atom_type_symbol
_atom_type_oxidation_number
Ba0+ 0
Al0+ 0
Sn0+ 0
loop_
_atom_site_label
_atom_site_type_symbol
_atom_site_symmetry_multiplicity
_atom_site_Wyckoff_symbol
_atom_site_fract_x
_atom_site_fract_y
_atom_site_fract_z
_atom_site_B_iso_or_equiv
_atom_site_occupancy
_atom_site_attached_hydrogens
Ba1 Ba0+ 2 g 0. 0. 0.32760(4) 0.01548(11) 1 0
Ba2 Ba0+ 2 i 0.6667 0.3333 0.19921(5) 0.02502(13) 1 0
Ba3 Ba0+ 1 c 0.3333 0.6667 0. 0.01943(16) 1 0
Al1 Al0+ 2 h 0.3333 0.6667 0.3222(3) 0.0193(5) 1 0
Al2 Al0+ 3 k 0.5120(2) 0.4880(2) 0.5 0.0188(3) 1 0
Sn1 Sn0+ 1 a 0. 0. 0. 0.02301(15) 1 0
loop_
_atom_site_aniso_label
_atom_site_aniso_type_symbol
_atom_site_aniso_U_11
_atom_site_aniso_U_22
_atom_site_aniso_U_33
_atom_site_aniso_U_12
_atom_site_aniso_U_13
_atom_site_aniso_U_23
Ba1 Ba0+ 0.01353(12) 0.01353(12) 0.01938(19) 0.00677(6) 0. 0.
Ba2 Ba0+ 0.02614(16) 0.02614(16) 0.0228(2) 0.01307(8) 0. 0.
Ba3 Ba0+ 0.01992(18) 0.01992(18) 0.0184(4) 0.00996(9) 0. 0.
Al1 Al0+ 0.0172(7) 0.0172(7) 0.0234(14) 0.0086(3) 0. 0.
Al2 Al0+ 0.0186(5) 0.0186(5) 0.0160(8) 0.0069(6) 0. 0.
Sn1 Sn0+ 0.02196(19) 0.02196(19) 0.0251(4) 0.01098(9) 0. 0.
