
data_416337-ICSD
_database_code_ICSD 416337
_audit_creation_date 2007-08-01
_audit_update_record 2011-02-01
_chemical_name_systematic 'Pentabarium pentaaluminide plumbide'
_chemical_formula_structural 'Ba5 Al5 Pb'
_chemical_formula_sum 'Al5 Ba5 Pb1'
_chemical_name_structure_type Ba5Al5Pb
_exptl_crystal_density_diffrn 4.82
_cell_length_a 6.0692(18)
_cell_length_b 6.0692(18)
_cell_length_c 11.120(4)
_cell_angle_alpha 90.
_cell_angle_beta 90.
_cell_angle_gamma 120.
_cell_volume 354.73
_cell_formula_units_Z 1
_symmetry_space_group_name_H-M 'P -6 m 2'
_symmetry_Int_Tables_number 187
_refine_ls_R_factor_all 0.0434
loop_
_symmetry_equiv_pos_site_id
_symmetry_equiv_pos_as_xyz
1 'x, x-y, -z'
2 '-x+y, y, -z'
3 '-y, -x, -z'
4 'x, x-y, z'
5 '-x+y, y, z'
6 '-y, -x, z'
7 '-x+y, -x, -z'
8 '-y, x-y, -z'
9 'x, y, -z'
10 '-x+y, -x, z'
11 '-y, x-y, z'
12 'x, y, z'
loop_
_atom_type_symbol
_atom_type_oxidation_number
Ba0+ 0
Al0+ 0
Pb0+ 0
loop_
_atom_site_label
_atom_site_type_symbol
_atom_site_symmetry_multiplicity
_atom_site_Wyckoff_symbol
_atom_site_fract_x
_atom_site_fract_y
_atom_site_fract_z
_atom_site_B_iso_or_equiv
_atom_site_occupancy
_atom_site_attached_hydrogens
Ba1 Ba0+ 2 g 0. 0. 0.32828(11) 0.0169(3) 1 0
Ba2 Ba0+ 2 i 0.6667 0.3333 0.20000(13) 0.0261(4) 1 0
Ba3 Ba0+ 1 c 0.3333 0.6667 0. 0.0213(5) 1 0
Al1 Al0+ 2 h 0.3333 0.6667 0.3220(7) 0.0160(17) 1 0
Al2 Al0+ 3 k 0.5122(5) 0.0244(9) 0.5 0.0196(10) 1 0
Pb1 Pb0+ 1 a 0. 0. 0. 0.0258(4) 1 0
loop_
_atom_site_aniso_label
_atom_site_aniso_type_symbol
_atom_site_aniso_U_11
_atom_site_aniso_U_22
_atom_site_aniso_U_33
_atom_site_aniso_U_12
_atom_site_aniso_U_13
_atom_site_aniso_U_23
Ba1 Ba0+ 0.0134(4) 0.0134(4) 0.0237(6) 0.00672(18) 0. 0.
Ba2 Ba0+ 0.0265(4) 0.0265(4) 0.0253(7) 0.0132(2) 0. 0.
Ba3 Ba0+ 0.0199(5) 0.0199(5) 0.0241(12) 0.0100(3) 0. 0.
Al1 Al0+ 0.0120(18) 0.0120(18) 0.024(4) 0.0060(9) 0. 0.
Al2 Al0+ 0.0163(14) 0.019(2) 0.025(2) 0.0093(11) 0. 0.
Pb1 Pb0+ 0.0231(4) 0.0231(4) 0.0312(7) 0.0116(2) 0. 0.
