
data_416340-ICSD
_database_code_ICSD 416340
_audit_creation_date 2007-08-01
_chemical_name_systematic 'Pentabarium pentagallide stannide'
_chemical_formula_structural 'Ba5 Ga5 Sn'
_chemical_formula_sum 'Ba5 Ga5 Sn1'
_chemical_name_structure_type Ba5Al5Pb
_exptl_crystal_density_diffrn 5.67
_cell_length_a 5.9945(5)
_cell_length_b 5.9945(5)
_cell_length_c 10.8600(7)
_cell_angle_alpha 90.
_cell_angle_beta 90.
_cell_angle_gamma 120.
_cell_volume 337.96
_cell_formula_units_Z 1
_symmetry_space_group_name_H-M 'P -6 m 2'
_symmetry_Int_Tables_number 187
_refine_ls_R_factor_all 0.0492
loop_
_symmetry_equiv_pos_site_id
_symmetry_equiv_pos_as_xyz
1 'x, x-y, -z'
2 '-x+y, y, -z'
3 '-y, -x, -z'
4 'x, x-y, z'
5 '-x+y, y, z'
6 '-y, -x, z'
7 '-x+y, -x, -z'
8 '-y, x-y, -z'
9 'x, y, -z'
10 '-x+y, -x, z'
11 '-y, x-y, z'
12 'x, y, z'
loop_
_atom_type_symbol
_atom_type_oxidation_number
Ba0+ 0
Ga0+ 0
Sn0+ 0
loop_
_atom_site_label
_atom_site_type_symbol
_atom_site_symmetry_multiplicity
_atom_site_Wyckoff_symbol
_atom_site_fract_x
_atom_site_fract_y
_atom_site_fract_z
_atom_site_B_iso_or_equiv
_atom_site_occupancy
_atom_site_attached_hydrogens
Ba1 Ba0+ 2 g 0. 0. 0.33050(9) 0.0145(3) 1 0
Ba2 Ba0+ 2 i 0.6667 0.3333 0.20228(11) 0.0244(3) 1 0
Ba3 Ba0+ 1 c 0.3333 0.6667 0. 0.0181(4) 1 0
Ga1 Ga0+ 2 h 0.3333 0.6667 0.3262(2) 0.0180(5) 1 0
Ga2 Ga0+ 3 k 0.51502(14) 0.48498(14) 0.5 0.0169(4) 1 0
Sn1 Sn0+ 1 a 0. 0. 0. 0.0196(4) 1 0
loop_
_atom_site_aniso_label
_atom_site_aniso_type_symbol
_atom_site_aniso_U_11
_atom_site_aniso_U_22
_atom_site_aniso_U_33
_atom_site_aniso_U_12
_atom_site_aniso_U_13
_atom_site_aniso_U_23
Ba1 Ba0+ 0.0123(3) 0.0123(3) 0.0190(6) 0.00613(15) 0. 0.
Ba2 Ba0+ 0.0257(3) 0.0257(3) 0.0220(5) 0.01285(17) 0. 0.
Ba3 Ba0+ 0.0168(5) 0.0168(5) 0.0205(8) 0.0084(2) 0. 0.
Ga1 Ga0+ 0.0152(7) 0.0152(7) 0.0237(13) 0.0076(3) 0. 0.
Ga2 Ga0+ 0.0153(5) 0.0153(5) 0.0182(8) 0.0061(6) 0. 0.
Sn1 Sn0+ 0.0184(5) 0.0184(5) 0.0221(9) 0.0092(2) 0. 0.
