
#(C) 2017 by FIZ Karlsruhe - Leibniz Institute for Information Infrastructure.  All rights reserved.
data_416421-ICSD
_database_code_ICSD 416421
_audit_creation_date 2007-08-01
_chemical_name_systematic 'Lanthanum platinum germanide (1/2/2)'
_chemical_formula_structural 'La Pt2 Ge2'
_chemical_formula_sum 'Ge2 La1 Pt2'
_chemical_name_structure_type SrPt2As2
_exptl_crystal_density_diffrn 11.42
_publ_section_title
'La Pt2 Ge2 und Eu Pt2 Ge2 - Neubestimmung der Kristallstrukturen'
loop_
_citation_id
_citation_journal_full
_citation_year
_citation_journal_volume
_citation_page_first
_citation_page_last
_citation_journal_id_ASTM
primary 'Zeitschrift fuer Anorganische und Allgemeine Chemie (1950) (DE)' 2006
632 2217 2221 ZAACAB
loop_
_publ_author_name
'Imre, A.'
'Hellmann, A.'
'Mewis, A.'
_cell_length_a 9.953(3)
_cell_length_b 4.4390(10)
_cell_length_c 8.879(3)
_cell_angle_alpha 90.
_cell_angle_beta 90.62(4)
_cell_angle_gamma 90.
_cell_volume 392.26
_cell_formula_units_Z 4
_symmetry_space_group_name_H-M 'P 1 21/c 1'
_symmetry_Int_Tables_number 14
_refine_ls_R_factor_all 0.1304
loop_
_symmetry_equiv_pos_site_id
_symmetry_equiv_pos_as_xyz
1 'x, -y+1/2, z+1/2'
2 '-x, -y, -z'
3 '-x, y+1/2, -z+1/2'
4 'x, y, z'
loop_
_atom_type_symbol
_atom_type_oxidation_number
La0+ 0
Pt0+ 0
Ge0+ 0
loop_
_atom_site_label
_atom_site_type_symbol
_atom_site_symmetry_multiplicity
_atom_site_Wyckoff_symbol
_atom_site_fract_x
_atom_site_fract_y
_atom_site_fract_z
_atom_site_B_iso_or_equiv
_atom_site_occupancy
_atom_site_attached_hydrogens
La1 La0+ 4 e 0.2444(2) 0.7453(6) 0.1266(2) 0.0150(6) 1 0
Pt1 Pt0+ 4 e 0.12369(17) 0.2440(4) 0.37654(19) 0.0154(5) 1 0
Pt2 Pt0+ 4 e 0.49993(17) 0.1959(5) 0.1368(3) 0.0220(6) 1 0
Ge1 Ge0+ 4 e 0.9994(4) 0.2417(10) 0.1244(5) 0.0103(8) 1 0
Ge2 Ge0+ 4 e 0.3764(5) 0.2119(14) 0.3868(7) 0.0277(12) 1 0
loop_
_atom_site_aniso_label
_atom_site_aniso_type_symbol
_atom_site_aniso_U_11
_atom_site_aniso_U_22
_atom_site_aniso_U_33
_atom_site_aniso_U_12
_atom_site_aniso_U_13
_atom_site_aniso_U_23
La1 La0+ 0.0165(10) 0.0175(16) 0.0111(11) -0.0001(8) 0.0004(9) -0.0001(9)
Pt1 Pt0+ 0.0186(8) 0.0161(10) 0.0116(7) -0.0001(6) 0.0024(5) 0.0002(6)
Pt2 Pt0+ 0.0167(8) 0.0177(10) 0.0317(10) 0.0012(7) 0.0040(6) -0.0062(8)
Ge1 Ge0+ 0.0091(16) 0.018(2) 0.0038(16) 0.0007(14) 0.0021(12) 0.0014(16)
Ge2 Ge0+ 0.021(2) 0.025(3) 0.037(3) -0.002(2) 0.006(2) -0.002(2)
#End of TTdata_416421-ICSD