
data_416587-ICSD
_database_code_ICSD 416587
_audit_creation_date 2008-02-01
_chemical_name_systematic 'Pentasilver tetrathiophosphate dichloride'
_chemical_formula_structural 'Ag5 (P S4) Cl2'
_chemical_formula_sum 'Ag5 Cl2 P1 S4'
_exptl_crystal_density_diffrn 4.95
_cell_measurement_temperature 293.
_cell_length_a 7.4090(10)
_cell_length_b 11.143(2)
_cell_length_c 6.2580(10)
_cell_angle_alpha 90.
_cell_angle_beta 90.
_cell_angle_gamma 90.
_cell_volume 516.65
_cell_formula_units_Z 2
_symmetry_space_group_name_H-M 'A m m 2'
_symmetry_Int_Tables_number 38
_refine_ls_R_factor_all 0.023
loop_
_symmetry_equiv_pos_site_id
_symmetry_equiv_pos_as_xyz
1 'x, -y, z'
2 '-x, y, z'
3 '-x, -y, z'
4 'x, y, z'
5 'x, -y+1/2, z+1/2'
6 '-x, y+1/2, z+1/2'
7 '-x, -y+1/2, z+1/2'
8 'x, y+1/2, z+1/2'
loop_
_atom_type_symbol
_atom_type_oxidation_number
Ag1+ 1
P5+ 5
S2- -2
Cl1- -1
S2- -2
loop_
_atom_site_label
_atom_site_type_symbol
_atom_site_symmetry_multiplicity
_atom_site_Wyckoff_symbol
_atom_site_fract_x
_atom_site_fract_y
_atom_site_fract_z
_atom_site_B_iso_or_equiv
_atom_site_occupancy
_atom_site_attached_hydrogens
Ag1 Ag1+ 2 b 0.5 0. 0.40207(13) 0.0185(2) 1 0
Ag2 Ag1+ 8 f 0.22080(6) 0.19101(3) -0.12732(9) 0.01985(15) 1 0
P1 P5+ 2 a 0. 0. 0.4602(4) 0.0088(5) 1 0
S1 S2- 4 d 0. 0.14806(15) 0.2599(3) 0.0103(3) 1 0
Cl1 Cl1- 4 e 0.5 0.32680(17) 0.6168(3) 0.0155(3) 1 0
S2 S2- 4 c 0.2277(2) 0. 0.6499(3) 0.0097(3) 1 0
loop_
_atom_site_aniso_label
_atom_site_aniso_type_symbol
_atom_site_aniso_U_11
_atom_site_aniso_U_22
_atom_site_aniso_U_33
_atom_site_aniso_U_12
_atom_site_aniso_U_13
_atom_site_aniso_U_23
Ag1 Ag1+ 0.0135(4) 0.0285(4) 0.0135(4) 0. 0. 0.
Ag2 Ag1+ 0.0192(2) 0.0180(2) 0.0224(2) 0.00592(13) -0.0072(2) -0.00715(17)
P1 P5+ 0.0103(12) 0.0064(9) 0.0096(11) 0. 0. 0.
S1 S2- 0.0116(8) 0.0087(7) 0.0105(7) 0. 0. 0.0029(5)
Cl1 Cl1- 0.0136(8) 0.0194(7) 0.0136(8) 0. 0. -0.0030(6)
S2 S2- 0.0098(8) 0.0083(7) 0.0110(8) 0. -0.0007(6) 0.
