
#(C) 2017 by FIZ Karlsruhe - Leibniz Institute for Information Infrastructure.  All rights reserved.
data_41678-ICSD
_database_code_ICSD 41678
_audit_creation_date 1999-11-30
_chemical_name_systematic 'Scandium phosphide (3/2)'
_chemical_formula_structural 'Sc3 P2'
_chemical_formula_sum 'P2 Sc3'
_chemical_name_structure_type Cr3C2(Pnma)
_exptl_crystal_density_diffrn 3.47
_publ_section_title
'Crystallographic data on new scandium arsenides and phosphides'
loop_
_citation_id
_citation_journal_full
_citation_year
_citation_journal_volume
_citation_page_first
_citation_page_last
_citation_journal_id_ASTM
primary 'Acta Chemica Scandinavica, Series A: (28,1974-)' 1980 34 231 233 ACAPCT
loop_
_publ_author_name
'Berger, R.'
_cell_length_a 6.9781(18)
_cell_length_b 3.7570(6)
_cell_length_c 14.3655(22)
_cell_angle_alpha 90.
_cell_angle_beta 90.
_cell_angle_gamma 90.
_cell_volume 376.62
_cell_formula_units_Z 4
_symmetry_space_group_name_H-M 'P n m a'
_symmetry_Int_Tables_number 62
loop_
_symmetry_equiv_pos_site_id
_symmetry_equiv_pos_as_xyz
1 'x+1/2, y, -z+1/2'
2 'x, -y+1/2, z'
3 '-x+1/2, y+1/2, z+1/2'
4 '-x, -y, -z'
5 '-x+1/2, -y, z+1/2'
6 '-x, y+1/2, -z'
7 'x+1/2, -y+1/2, -z+1/2'
8 'x, y, z'
loop_
_atom_type_symbol
_atom_type_oxidation_number
Sc0+ 0
P0+ 0
loop_
_atom_site_label
_atom_site_type_symbol
_atom_site_symmetry_multiplicity
_atom_site_Wyckoff_symbol
_atom_site_fract_x
_atom_site_fract_y
_atom_site_fract_z
_atom_site_B_iso_or_equiv
_atom_site_occupancy
_atom_site_attached_hydrogens
Sc1 Sc0+ 4 c 0.0163 0.25 0.4016 0.5 1. 0
Sc2 Sc0+ 4 c 0.1808 0.25 0.7735 0.5 1. 0
Sc3 Sc0+ 4 c 0.8691 0.25 0.9313 0.5 1. 0
P1 P0+ 4 c 0.0993 0.25 0.2061 0.8 1. 0
P2 P0+ 4 c 0.2404 0.25 0.9531 0.8 1. 0
#End of TTdata_41678-ICSD