
#(C) 2017 by FIZ Karlsruhe - Leibniz Institute for Information Infrastructure.  All rights reserved.
data_416817-ICSD
_database_code_ICSD 416817
_audit_creation_date 2007-08-01
_chemical_name_systematic 'Dilanthanum dinickel zinc'
_chemical_formula_structural 'La2 Ni2 Zn'
_chemical_formula_sum 'La2 Ni2 Zn1'
_chemical_name_structure_type Au3K2
_exptl_crystal_density_diffrn 7.43
_publ_section_title

;
Crystal Structure Investigation of RE-Ni-Zn Ternary Compounds (RE = La, Ce,
Tb)
;
loop_
_citation_id
_citation_journal_full
_citation_year
_citation_journal_volume
_citation_page_first
_citation_page_last
_citation_journal_id_ASTM
primary 'Zeitschrift fuer Anorganische und Allgemeine Chemie (1950) (DE)' 2007
633 482 489 ZAACAB
loop_
_publ_author_name
'Solokha, P.'
'de Negri, S.'
'Saccone, A.'
'Pavlyuk, V.'
'Tedenac, J.C.'
_cell_length_a 4.3809(9)
_cell_length_b 5.4592(11)
_cell_length_c 8.6045(17)
_cell_angle_alpha 90.
_cell_angle_beta 90.
_cell_angle_gamma 90.
_cell_volume 205.79
_cell_formula_units_Z 2
_symmetry_space_group_name_H-M 'I m m m'
_symmetry_Int_Tables_number 71
_refine_ls_R_factor_all 0.0344
loop_
_symmetry_equiv_pos_site_id
_symmetry_equiv_pos_as_xyz
1 'x, y, -z'
2 'x, -y, z'
3 '-x, y, z'
4 '-x, -y, -z'
5 '-x, -y, z'
6 '-x, y, -z'
7 'x, -y, -z'
8 'x, y, z'
9 'x+1/2, y+1/2, -z+1/2'
10 'x+1/2, -y+1/2, z+1/2'
11 '-x+1/2, y+1/2, z+1/2'
12 '-x+1/2, -y+1/2, -z+1/2'
13 '-x+1/2, -y+1/2, z+1/2'
14 '-x+1/2, y+1/2, -z+1/2'
15 'x+1/2, -y+1/2, -z+1/2'
16 'x+1/2, y+1/2, z+1/2'
loop_
_atom_type_symbol
_atom_type_oxidation_number
La0+ 0
Ni0+ 0
Zn0+ 0
loop_
_atom_site_label
_atom_site_type_symbol
_atom_site_symmetry_multiplicity
_atom_site_Wyckoff_symbol
_atom_site_fract_x
_atom_site_fract_y
_atom_site_fract_z
_atom_site_B_iso_or_equiv
_atom_site_occupancy
_atom_site_attached_hydrogens
La1 La0+ 4 j 0.5 0. 0.30287(9) 0.0092(4) 1 0
Ni1 Ni0+ 4 h 0. 0.2473(4) 0.5 0.0092(5) 1 0
Zn1 Zn0+ 2 a 0. 0. 0. 0.0089(5) 1 0
loop_
_atom_site_aniso_label
_atom_site_aniso_type_symbol
_atom_site_aniso_U_11
_atom_site_aniso_U_22
_atom_site_aniso_U_33
_atom_site_aniso_U_12
_atom_site_aniso_U_13
_atom_site_aniso_U_23
La1 La0+ 0.0074(5) 0.0122(5) 0.0079(5) 0. 0. 0.
Ni1 Ni0+ 0.0070(8) 0.0122(9) 0.0084(8) 0. 0. 0.
Zn1 Zn0+ 0.0086(10) 0.0066(10) 0.0114(10) 0. 0. 0.
#End of TTdata_416817-ICSD