
#(C) 2017 by FIZ Karlsruhe - Leibniz Institute for Information Infrastructure.  All rights reserved.
data_416907-ICSD
_database_code_ICSD 416907
_audit_creation_date 2007-08-01
_chemical_name_systematic 'Octalanthanum pentakis(dicarbide) tetrachloride'
_chemical_formula_structural 'La8 (C2)5 Cl4'
_chemical_formula_sum 'C10 Cl4 La8'
_exptl_crystal_density_diffrn 5.06
_publ_section_title
'La6 (C2)3 Cl4 und La8 (C2)5 Cl4: Schichten und Kanaele aus La6(C2)-Clustern'
loop_
_citation_id
_citation_journal_full
_citation_year
_citation_journal_volume
_citation_page_first
_citation_page_last
_citation_journal_id_ASTM
primary 'Zeitschrift fuer Anorganische und Allgemeine Chemie (1950) (DE)' 2007
633 239 245 ZAACAB
loop_
_publ_author_name
'Mattausch, H.J.'
'Hoch, C.'
'Zheng Chong'
'Simon, A.'
_cell_length_a 22.579(2)
_cell_length_b 3.9340(10)
_cell_length_c 10.1980(10)
_cell_angle_alpha 90.
_cell_angle_beta 95.70(2)
_cell_angle_gamma 90.
_cell_volume 901.37
_cell_formula_units_Z 2
_symmetry_space_group_name_H-M 'C 1 2/m 1'
_symmetry_Int_Tables_number 12
_refine_ls_R_factor_all 0.0347
loop_
_symmetry_equiv_pos_site_id
_symmetry_equiv_pos_as_xyz
1 '-x, y, -z'
2 '-x, -y, -z'
3 'x, -y, z'
4 'x, y, z'
5 '-x+1/2, y+1/2, -z'
6 '-x+1/2, -y+1/2, -z'
7 'x+1/2, -y+1/2, z'
8 'x+1/2, y+1/2, z'
loop_
_atom_type_symbol
_atom_type_oxidation_number
La3+ 3
Cl1- -1
C2- -2
loop_
_atom_site_label
_atom_site_type_symbol
_atom_site_symmetry_multiplicity
_atom_site_Wyckoff_symbol
_atom_site_fract_x
_atom_site_fract_y
_atom_site_fract_z
_atom_site_B_iso_or_equiv
_atom_site_occupancy
_atom_site_attached_hydrogens
La1 La3+ 4 i 0.174497(12) 0. 0.02400(3) 0.00810(8) 1 0
La2 La3+ 4 i 0.117504(12) 0.5 0.35350(3) 0.00761(8) 1 0
La3 La3+ 4 i 0.275199(12) 0. 0.33276(3) 0.00804(8) 1 0
La4 La3+ 4 i -0.045874(12) 0. 0.34871(2) 0.00864(8) 1 0
Cl1 Cl1- 4 i 0.05701(6) 0. 0.16321(13) 0.0135(2) 1 0
Cl2 Cl1- 4 i 0.10247(8) 0.5 -0.14971(15) 0.0182(2) 1 0
C1 C2- 4 i 0.1446(2) 1. 0.5470(5) 0.0091(7) 1 0
C2 C2- 4 i 0.2030(2) 0.5 0.2028(6) 0.0102(8) 1 0
C3 C2- 4 i 0.1895(2) 1. 0.4771(5) 0.0096(7) 1 0
C4 C2- 4 i 0.2506(2) 0. -0.1335(5) 0.0100(7) 1 0
C5 C2- 4 i 0.0237(2) 0.5 0.4656(5) 0.0104(7) 1 0
loop_
_atom_site_aniso_label
_atom_site_aniso_type_symbol
_atom_site_aniso_U_11
_atom_site_aniso_U_22
_atom_site_aniso_U_33
_atom_site_aniso_U_12
_atom_site_aniso_U_13
_atom_site_aniso_U_23
La1 La3+ 0.00732(13) 0.00818(13) 0.00892(13) 0. 0.00147(9) 0.
La2 La3+ 0.00680(12) 0.00744(12) 0.00890(12) 0. 0.00224(8) 0.
La3 La3+ 0.00722(14) 0.00732(13) 0.00953(14) 0. 0.00056(9) 0.
La4 La3+ 0.00848(12) 0.00904(13) 0.00843(13) 0. 0.00106(8) 0.
Cl1 Cl1- 0.0139(5) 0.0144(5) 0.0121(5) 0. 0.0005(4) 0.
Cl2 Cl1- 0.0243(6) 0.0108(4) 0.0170(6) 0. -0.0096(5) 0.
C1 C2- 0.0068(16) 0.0087(15) 0.0114(17) 0. -0.0013(13) 0.
C2 C2- 0.0064(16) 0.0092(16) 0.015(2) 0. 0.0002(14) 0.
C3 C2- 0.0069(16) 0.0099(16) 0.0114(17) 0. -0.0017(13) 0.
C4 C2- 0.0119(19) 0.0053(14) 0.0130(19) 0. 0.0019(14) 0.
C5 C2- 0.0100(17) 0.0081(15) 0.0131(18) 0. 0.0009(14) 0.
#End of TTdata_416907-ICSD