
#(C) 2017 by FIZ Karlsruhe - Leibniz Institute for Information Infrastructure.  All rights reserved.
data_417531-ICSD
_database_code_ICSD 417531
_audit_creation_date 2008-02-01
_audit_update_record 2013-02-01
_chemical_name_systematic 'Yttrium platinum stannide'
_chemical_formula_structural 'Y Pt Sn'
_chemical_formula_sum 'Pt1 Sn1 Y1'
_chemical_name_structure_type TiNiSi-MgSrSi
_exptl_crystal_density_diffrn 10.36
_cell_measurement_temperature 293.
_publ_section_title
'The high-temperature phases HT-Y Pt Sn, HT-Gd Pt Sn, and HT-Tb Pt Sn'
loop_
_citation_id
_citation_journal_full
_citation_year
_citation_journal_volume
_citation_page_first
_citation_page_last
_citation_journal_id_ASTM
primary 'Zeitschrift fuer Anorganische und Allgemeine Chemie (1950) (DE)' 2007
633 869 872 ZAACAB
loop_
_publ_author_name
'Riecken, J.F.'
'Heymann, G.'
'Huppertz, H.'
'Poettgen, R.'
_cell_length_a 7.160(1)
_cell_length_b 4.5353(9)
_cell_length_c 7.951(1)
_cell_angle_alpha 90.
_cell_angle_beta 90.
_cell_angle_gamma 90.
_cell_volume 258.19
_cell_formula_units_Z 4
_symmetry_space_group_name_H-M 'P n m a'
_symmetry_Int_Tables_number 62
_refine_ls_R_factor_all 0.0364
loop_
_symmetry_equiv_pos_site_id
_symmetry_equiv_pos_as_xyz
1 'x+1/2, y, -z+1/2'
2 'x, -y+1/2, z'
3 '-x+1/2, y+1/2, z+1/2'
4 '-x, -y, -z'
5 '-x+1/2, -y, z+1/2'
6 '-x, y+1/2, -z'
7 'x+1/2, -y+1/2, -z+1/2'
8 'x, y, z'
loop_
_atom_type_symbol
_atom_type_oxidation_number
Y0+ 0
Pt0+ 0
Sn0+ 0
loop_
_atom_site_label
_atom_site_type_symbol
_atom_site_symmetry_multiplicity
_atom_site_Wyckoff_symbol
_atom_site_fract_x
_atom_site_fract_y
_atom_site_fract_z
_atom_site_B_iso_or_equiv
_atom_site_occupancy
_atom_site_attached_hydrogens
Y1 Y0+ 4 c 0.00921(15) 0.25 0.69878(13) 0.0026(2) 1 0
Pt1 Pt0+ 4 c 0.28552(6) 0.25 0.41036(5) 0.00216(14) 1 0
Sn1 Sn0+ 4 c 0.18164(10) 0.25 0.08452(10) 0.00161(17) 1 0
loop_
_atom_site_aniso_label
_atom_site_aniso_type_symbol
_atom_site_aniso_U_11
_atom_site_aniso_U_22
_atom_site_aniso_U_33
_atom_site_aniso_U_12
_atom_site_aniso_U_13
_atom_site_aniso_U_23
Y1 Y0+ 0.0013(4) 0.0037(5) 0.0029(4) 0. 0.0003(4) 0.
Pt1 Pt0+ 0.00289(19) 0.0015(2) 0.0021(2) 0. 0.00009(17) 0.
Sn1 Sn0+ 0.0029(3) 0.0010(3) 0.0010(3) 0. -0.0003(3) 0.
#End of TTdata_417531-ICSD