
#(C) 2017 by FIZ Karlsruhe - Leibniz Institute for Information Infrastructure.  All rights reserved.
data_418162-ICSD
_database_code_ICSD 418162
_audit_creation_date 2009-02-01
_audit_update_record 2013-02-01
_chemical_name_systematic 'Chromium iridium boride (2.14/0.86/2) - beta'
_chemical_formula_structural 'Cr2 Ir B2'
_chemical_formula_sum 'B2 Cr2 Ir1'
_exptl_crystal_density_diffrn 10.72
_cell_measurement_temperature 293.
_publ_section_title

;
Synthesis and crystal structures of alpha- and beta-modifications of Cr2 Ir B2
containing four-membered B4 chain fragments, the tau-boride Cr7.9 Ir14.1 B6
and orthorhombic Cr2 B
;
loop_
_citation_id
_citation_journal_full
_citation_year
_citation_journal_volume
_citation_page_first
_citation_page_last
_citation_journal_id_ASTM
primary 'European Journal of Inorganic Chemistry  (online)' 2008 2008 291 302
EJICFO
loop_
_publ_author_name
'Kotzott, D.'
'Ade, M.'
'Hillebrecht, H.'
_cell_length_a 3.0024(7)
_cell_length_b 9.9447(19)
_cell_length_c 13.236(2)
_cell_angle_alpha 90.
_cell_angle_beta 90.
_cell_angle_gamma 90.
_cell_volume 395.2
_cell_formula_units_Z 8
_symmetry_space_group_name_H-M 'C m c m'
_symmetry_Int_Tables_number 63
_refine_ls_R_factor_all 0.0279
loop_
_symmetry_equiv_pos_site_id
_symmetry_equiv_pos_as_xyz
1 '-x, y, -z+1/2'
2 '-x, -y, z+1/2'
3 '-x, y, z'
4 '-x, -y, -z'
5 'x, -y, z+1/2'
6 'x, y, -z+1/2'
7 'x, -y, -z'
8 'x, y, z'
9 '-x+1/2, y+1/2, -z+1/2'
10 '-x+1/2, -y+1/2, z+1/2'
11 '-x+1/2, y+1/2, z'
12 '-x+1/2, -y+1/2, -z'
13 'x+1/2, -y+1/2, z+1/2'
14 'x+1/2, y+1/2, -z+1/2'
15 'x+1/2, -y+1/2, -z'
16 'x+1/2, y+1/2, z'
loop_
_atom_type_symbol
_atom_type_oxidation_number
Ir0+ 0
Cr0+ 0
B0+ 0
loop_
_atom_site_label
_atom_site_type_symbol
_atom_site_symmetry_multiplicity
_atom_site_Wyckoff_symbol
_atom_site_fract_x
_atom_site_fract_y
_atom_site_fract_z
_atom_site_B_iso_or_equiv
_atom_site_occupancy
_atom_site_attached_hydrogens
Ir1 Ir0+ 8 f 0. 0.44238(5) 0.40976(4) 0.01281(16) 1 0
Cr1 Cr0+ 4 c 0.5 0.4974(3) 0.25 0.0114(5) 1 0
Cr2 Cr0+ 4 c 0.5 0.7688(3) 0.25 0.0085(5) 1 0
Cr3 Cr0+ 8 f 0. 0.16960(17) 0.44103(15) 0.0055(4) 1 0
B1 B0+ 8 f 0. 0.6358(16) 0.3173(13) 0.018(3) 1 0
B2 B0+ 8 f 0. 0.8018(17) 0.3713(13) 0.016(3) 1 0
loop_
_atom_site_aniso_label
_atom_site_aniso_type_symbol
_atom_site_aniso_U_11
_atom_site_aniso_U_22
_atom_site_aniso_U_33
_atom_site_aniso_U_12
_atom_site_aniso_U_13
_atom_site_aniso_U_23
Ir1 Ir0+ 0.0193(2) 0.0065(2) 0.0126(2) 0. 0. -0.0002(2)
Cr1 Cr0+ 0.0131(14) 0.0054(11) 0.0157(13) 0. 0. 0.
Cr2 Cr0+ 0.0099(13) 0.0063(11) 0.0092(11) 0. 0. 0.
Cr3 Cr0+ 0.0076(8) 0.0010(8) 0.0082(7) 0. 0. 0.0014(5)
#End of TTdata_418162-ICSD