
data_418214-ICSD
_database_code_ICSD 418214
_audit_creation_date 2008-08-01
_chemical_name_systematic 'Lanthanum copper magnesium (1/1/4)'
_chemical_formula_structural 'La Cu Mg4'
_chemical_formula_sum 'Cu1 La1 Mg4'
_chemical_name_structure_type UCoAl4
_exptl_crystal_density_diffrn 3.54
_cell_measurement_temperature 295.
_cell_length_a 10.3911715(10)
_cell_length_b 10.3911715(10)
_cell_length_c 4.512611(5)
_cell_angle_alpha 90.
_cell_angle_beta 90.
_cell_angle_gamma 120.
_cell_volume 421.98
_cell_formula_units_Z 3
_symmetry_space_group_name_H-M 'P -6 2 m'
_symmetry_Int_Tables_number 189
_refine_ls_R_factor_all 0.0629
loop_
_symmetry_equiv_pos_site_id
_symmetry_equiv_pos_as_xyz
1 '-x, -x+y, -z'
2 'x-y, -y, -z'
3 'y, x, -z'
4 '-x, -x+y, z'
5 'x-y, -y, z'
6 'y, x, z'
7 '-x+y, -x, -z'
8 '-y, x-y, -z'
9 'x, y, -z'
10 '-x+y, -x, z'
11 '-y, x-y, z'
12 'x, y, z'
loop_
_atom_type_symbol
_atom_type_oxidation_number
La0+ 0
Cu0+ 0
Mg0+ 0
loop_
_atom_site_label
_atom_site_type_symbol
_atom_site_symmetry_multiplicity
_atom_site_Wyckoff_symbol
_atom_site_fract_x
_atom_site_fract_y
_atom_site_fract_z
_atom_site_B_iso_or_equiv
_atom_site_occupancy
_atom_site_attached_hydrogens
La1 La0+ 3 f 0.4064(3) 0. 0. 0.0148(7) 1. 0
Cu1 Cu0+ 2 c 0.33333 0.66667 0. 0.0230(2) 1. 0
Cu2 Cu0+ 1 a 0. 0. 0. 0.0220(3) 1. 0
Mg1 Mg0+ 6 k 0.2935(13) 0.4746(12) 0.5 0.0211(2) 1. 0
Mg2 Mg0+ 3 f 0.7475(12) 0. 0. 0.020(5) 1. 0
Mg3 Mg0+ 3 g 0.1696(13) 0. 0.5 0.0192(6) 1. 0
