
#(C) 2017 by FIZ Karlsruhe - Leibniz Institute for Information Infrastructure.  All rights reserved.
data_418483-ICSD
_database_code_ICSD 418483
_audit_creation_date 2008-08-01
_audit_update_record 2011-02-01
_chemical_name_systematic 'Tetralanthanum pentachloride tetraboride'
_chemical_formula_structural 'La4 Cl5 B4'
_chemical_formula_sum 'B4 Cl5 La4'
_exptl_crystal_density_diffrn 4.57
_cell_measurement_temperature 293.
_publ_section_title

;
Rare erath halides Ln4 X5 Z. Part 3: The chloride La4 Cl5 B4 - Preparation,
structure and relation to La4 Br5 B4, La4 I5 B4
;
loop_
_citation_id
_citation_journal_full
_citation_year
_citation_journal_volume
_citation_page_first
_citation_page_last
_citation_journal_id_ASTM
primary 'Zeitschrift fuer Anorganische und Allgemeine Chemie (1950) (DE)' 2008
634 503 506 ZAACAB
loop_
_publ_author_name
'Mattausch, H.J.'
'Oeckler, O.'
'Simon, A.'
_cell_length_a 16.484(3)
_cell_length_b 4.263(1)
_cell_length_c 9.276(2)
_cell_angle_alpha 90.
_cell_angle_beta 120.06(3)
_cell_angle_gamma 90.
_cell_volume 564.17
_cell_formula_units_Z 2
_symmetry_space_group_name_H-M 'C 1 2/m 1'
_symmetry_Int_Tables_number 12
_refine_ls_R_factor_all 0.0282
loop_
_symmetry_equiv_pos_site_id
_symmetry_equiv_pos_as_xyz
1 '-x, y, -z'
2 '-x, -y, -z'
3 'x, -y, z'
4 'x, y, z'
5 '-x+1/2, y+1/2, -z'
6 '-x+1/2, -y+1/2, -z'
7 'x+1/2, -y+1/2, z'
8 'x+1/2, y+1/2, z'
loop_
_atom_type_symbol
_atom_type_oxidation_number
La0+ 0
Cl0+ 0
B0+ 0
loop_
_atom_site_label
_atom_site_type_symbol
_atom_site_symmetry_multiplicity
_atom_site_Wyckoff_symbol
_atom_site_fract_x
_atom_site_fract_y
_atom_site_fract_z
_atom_site_B_iso_or_equiv
_atom_site_occupancy
_atom_site_attached_hydrogens
La1 La0+ 4 i 0.16089(4) 0. 0.23852(7) 0.01193(19) 1 0
La2 La0+ 4 i 0.93637(4) 0.5 0.20365(7) 0.01253(19) 1 0
Cl1 Cl0+ 4 i 0.35113(16) 0. 0.5530(3) 0.0153(5) 1 0
Cl2 Cl0+ 2 c 0. 0. 0.5 0.0215(8) 1 0
Cl3 Cl0+ 4 i 0.25667(18) 0.5 0.1537(3) 0.0189(5) 1 0
B1 B0+ 4 i 0.0258(7) 0. 0.9224(13) 0.010(2) 1 0
B2 B0+ 4 g 0. 0.680(3) 0. 0.013(2) 1 0
loop_
_atom_site_aniso_label
_atom_site_aniso_type_symbol
_atom_site_aniso_U_11
_atom_site_aniso_U_22
_atom_site_aniso_U_33
_atom_site_aniso_U_12
_atom_site_aniso_U_13
_atom_site_aniso_U_23
La1 La0+ 0.0115(3) 0.0117(4) 0.0103(3) 0. 0.0037(2) 0.
La2 La0+ 0.0156(3) 0.0118(4) 0.0125(3) 0. 0.0087(2) 0.
Cl1 Cl0+ 0.0149(11) 0.0161(15) 0.0125(11) 0. 0.0050(9) 0.
Cl2 Cl0+ 0.0241(18) 0.026(2) 0.0168(17) 0. 0.0120(15) 0.
Cl3 Cl0+ 0.0192(12) 0.0178(16) 0.0228(13) 0. 0.0129(11) 0.
B1 B0+ 0.010(5) 0.008(7) 0.012(5) 0. 0.006(4) 0.
B2 B0+ 0.013(5) 0.010(7) 0.016(5) 0. 0.007(4) 0.
#End of TTdata_418483-ICSD