
data_418474-ICSD
_database_code_ICSD 418474
_audit_creation_date 2008-08-01
_chemical_name_systematic 'Thallium scandium disulfide'
_chemical_formula_structural 'Tl Sc S2'
_chemical_formula_sum 'S2 Sc1 Tl1'
_chemical_name_structure_type CsPrS2
_exptl_crystal_density_diffrn 5.69
_cell_measurement_temperature 293.
_cell_length_a 3.761(3)
_cell_length_b 3.761(3)
_cell_length_c 14.942(4)
_cell_angle_alpha 90.
_cell_angle_beta 90.
_cell_angle_gamma 120.
_cell_volume 183.04
_cell_formula_units_Z 2
_symmetry_space_group_name_H-M 'P 63/m m c'
_symmetry_Int_Tables_number 194
_refine_ls_R_factor_all 0.0308
loop_
_symmetry_equiv_pos_site_id
_symmetry_equiv_pos_as_xyz
1 'x, x-y, -z+1/2'
2 '-x+y, y, -z+1/2'
3 '-y, -x, -z+1/2'
4 '-x+y, -x, -z+1/2'
5 '-y, x-y, -z+1/2'
6 'x, y, -z+1/2'
7 '-x, -x+y, z+1/2'
8 'x-y, -y, z+1/2'
9 'y, x, z+1/2'
10 'x-y, x, z+1/2'
11 'y, -x+y, z+1/2'
12 '-x, -y, z+1/2'
13 '-x, -x+y, -z'
14 'x-y, -y, -z'
15 'y, x, -z'
16 'x-y, x, -z'
17 'y, -x+y, -z'
18 '-x, -y, -z'
19 'x, x-y, z'
20 '-x+y, y, z'
21 '-y, -x, z'
22 '-x+y, -x, z'
23 '-y, x-y, z'
24 'x, y, z'
loop_
_atom_type_symbol
_atom_type_oxidation_number
Tl1+ 1
Sc3+ 3
S2- -2
loop_
_atom_site_label
_atom_site_type_symbol
_atom_site_symmetry_multiplicity
_atom_site_Wyckoff_symbol
_atom_site_fract_x
_atom_site_fract_y
_atom_site_fract_z
_atom_site_B_iso_or_equiv
_atom_site_occupancy
_atom_site_attached_hydrogens
Tl1 Tl1+ 2 c 0.3333 0.6667 0.25 0.0306(4) 1 0
Sc1 Sc3+ 2 a 0 0 0.5 0.0172(5) 1 0
S1 S2- 4 f 0.3333 0.6667 0.59465(18) 0.0172(5) 1 0
loop_
_atom_site_aniso_label
_atom_site_aniso_type_symbol
_atom_site_aniso_U_11
_atom_site_aniso_U_22
_atom_site_aniso_U_33
_atom_site_aniso_U_12
_atom_site_aniso_U_13
_atom_site_aniso_U_23
Tl1 Tl1+ 0.0249(4) 0.0249(4) 0.0420(5) 0.0124(2) 0. 0.
Sc1 Sc3+ 0.0156(7) 0.0156(7) 0.0204(11) 0.0078(4) 0. 0.
S1 S2- 0.0156(7) 0.0156(7) 0.0204(11) 0.0078(4) 0. 0.
