
#(C) 2017 by FIZ Karlsruhe - Leibniz Institute for Information Infrastructure.  All rights reserved.
data_418618-ICSD
_database_code_ICSD 418618
_audit_creation_date 2008-08-01
_chemical_name_systematic 'Beryllium diboride dicarbide'
_chemical_formula_structural 'Be B2 C2'
_chemical_formula_sum 'C2 B2 Be1'
_exptl_crystal_density_diffrn 2.33
_cell_measurement_temperature 298.
_publ_section_title

;
The eta(6), eta(1) - coordination of beryllium atoms in the graphite analogue
Be B2 C2
;
loop_
_citation_id
_citation_journal_full
_citation_year
_citation_journal_volume
_citation_page_first
_citation_page_last
_citation_journal_id_ASTM
primary 'Angewandte Chemie. International Edition' 2008 47 2301 2303 ACIEF5
loop_
_publ_author_name
'Hofmann, K.'
'Rocquefelte, X.'
'Halet, J.F.'
'Baehtz, C.'
'Albert, B.'
_cell_length_a 6.13425(5)
_cell_length_b 5.42201(26)
_cell_length_c 4.69278(24)
_cell_angle_alpha 90.
_cell_angle_beta 90.
_cell_angle_gamma 90.
_cell_volume 156.08
_cell_formula_units_Z 4
_symmetry_space_group_name_H-M 'P m m n Z'
_symmetry_Int_Tables_number 59
_refine_ls_R_factor_all 0.2077
loop_
_symmetry_equiv_pos_site_id
_symmetry_equiv_pos_as_xyz
1 'x+1/2, y+1/2, -z'
2 '-x, y+1/2, -z'
3 'x+1/2, -y, -z'
4 '-x, -y, -z'
5 '-x+1/2, -y+1/2, z'
6 'x, -y+1/2, z'
7 '-x+1/2, y, z'
8 'x, y, z'
loop_
_atom_type_symbol
_atom_type_oxidation_number
B0+ 0
C0+ 0
Be0+ 0
loop_
_atom_site_label
_atom_site_type_symbol
_atom_site_symmetry_multiplicity
_atom_site_Wyckoff_symbol
_atom_site_fract_x
_atom_site_fract_y
_atom_site_fract_z
_atom_site_B_iso_or_equiv
_atom_site_occupancy
_atom_site_attached_hydrogens
B1 B0+ 4 e 0.25 0.007(4) 0.006(4) 0.01449 1. 0
B2 B0+ 2 a 0.25 0.25 0.497(4) 0.01449 1. 0
B3 B0+ 2 b 0.25 0.75 0.521(4) 0.01449 1. 0
C1 C0+ 4 e 0.25 0.9936(21) 0.3392(31) 0.00599 1. 0
C2 C0+ 2 a 0.25 0.25 0.834(5) 0.00599 1. 0
C3 C0+ 2 b 0.25 0.75 0.861(4) 0.00599 1. 0
Be1 Be0+ 4 f 0.9552(17) 0.25 0.815(4) 0.02593 1. 0
#End of TTdata_418618-ICSD