
data_418878-ICSD
_database_code_ICSD 418878
_audit_creation_date 2009-02-01
_chemical_name_systematic 'Calicum zinc (1/2) - HP'
_chemical_formula_structural 'Ca Zn2'
_chemical_formula_sum 'Ca1 Zn2'
_chemical_name_structure_type Laves(2H)-MgZn2
_exptl_crystal_density_diffrn 4.59
_cell_measurement_temperature 298.
_cell_length_a 5.6363(9)
_cell_length_b 5.6363(9)
_cell_length_c 8.994(3)
_cell_angle_alpha 90.
_cell_angle_beta 90.
_cell_angle_gamma 120.
_cell_volume 247.44
_cell_formula_units_Z 4
_symmetry_space_group_name_H-M 'P 63/m m c'
_symmetry_Int_Tables_number 194
_refine_ls_R_factor_all 0.051
loop_
_symmetry_equiv_pos_site_id
_symmetry_equiv_pos_as_xyz
1 'x, x-y, -z+1/2'
2 '-x+y, y, -z+1/2'
3 '-y, -x, -z+1/2'
4 '-x+y, -x, -z+1/2'
5 '-y, x-y, -z+1/2'
6 'x, y, -z+1/2'
7 '-x, -x+y, z+1/2'
8 'x-y, -y, z+1/2'
9 'y, x, z+1/2'
10 'x-y, x, z+1/2'
11 'y, -x+y, z+1/2'
12 '-x, -y, z+1/2'
13 '-x, -x+y, -z'
14 'x-y, -y, -z'
15 'y, x, -z'
16 'x-y, x, -z'
17 'y, -x+y, -z'
18 '-x, -y, -z'
19 'x, x-y, z'
20 '-x+y, y, z'
21 '-y, -x, z'
22 '-x+y, -x, z'
23 '-y, x-y, z'
24 'x, y, z'
loop_
_atom_type_symbol
_atom_type_oxidation_number
Ca0+ 0
Zn0+ 0
loop_
_atom_site_label
_atom_site_type_symbol
_atom_site_symmetry_multiplicity
_atom_site_Wyckoff_symbol
_atom_site_fract_x
_atom_site_fract_y
_atom_site_fract_z
_atom_site_B_iso_or_equiv
_atom_site_occupancy
_atom_site_attached_hydrogens
Ca1 Ca0+ 4 f 0.3333 0.6667 0.0592(3) 0.0170(6) 1. 0
Zn1 Zn0+ 2 a 0 0 0 0.0183(6) 1. 0
Zn2 Zn0+ 6 h 0.8336(2) 0.6672(2) 0.25 0.0198(5) 1. 0
loop_
_atom_site_aniso_label
_atom_site_aniso_type_symbol
_atom_site_aniso_U_11
_atom_site_aniso_U_22
_atom_site_aniso_U_33
_atom_site_aniso_U_12
_atom_site_aniso_U_13
_atom_site_aniso_U_23
Ca1 Ca0+ 0.0170(9) 0.0170(9) 0.0170(9) 0.0085(4) 0 0
Zn1 Zn0+ 0.0190(8) 0.0190(8) 0.0167(11) 0.0095(4) 0 0
Zn2 Zn0+ 0.0205(6) 0.0217(8) 0.0177(7) 0.0108(4) 0 0
