
data_419181-ICSD
_database_code_ICSD 419181
_audit_creation_date 2009-02-01
_chemical_name_systematic 'Rhenium(VII) nitride chloride'
_chemical_formula_structural 'Re N Cl4'
_chemical_formula_sum 'Cl4 N1 Re1'
_chemical_name_structure_type WOCl4
_exptl_crystal_density_diffrn 4.1
_cell_measurement_temperature 293.
_cell_length_a 8.267(4)
_cell_length_b 8.267(4)
_cell_length_c 4.051(2)
_cell_angle_alpha 90.
_cell_angle_beta 90.
_cell_angle_gamma 90.
_cell_volume 276.86
_cell_formula_units_Z 2
_symmetry_space_group_name_H-M 'I 4'
_symmetry_Int_Tables_number 79
_refine_ls_R_factor_all 0.0561
loop_
_symmetry_equiv_pos_site_id
_symmetry_equiv_pos_as_xyz
1 'y, -x, z'
2 '-y, x, z'
3 '-x, -y, z'
4 'x, y, z'
5 'y+1/2, -x+1/2, z+1/2'
6 '-y+1/2, x+1/2, z+1/2'
7 '-x+1/2, -y+1/2, z+1/2'
8 'x+1/2, y+1/2, z+1/2'
loop_
_atom_type_symbol
_atom_type_oxidation_number
Re7+ 7
Cl1- -1
N3- -3
loop_
_atom_site_label
_atom_site_type_symbol
_atom_site_symmetry_multiplicity
_atom_site_Wyckoff_symbol
_atom_site_fract_x
_atom_site_fract_y
_atom_site_fract_z
_atom_site_B_iso_or_equiv
_atom_site_occupancy
_atom_site_attached_hydrogens
Re1 Re7+ 2 a 0. 0. -0.0081(5) 0.0318(14) 1 0
Cl1 Cl1- 8 c -0.0709(10) 0.2627(10) 0.066(2) 0.031(3) 1 0
N1 N3- 2 a 0. 0. 0.589(13) 0.025 1 0
loop_
_atom_site_aniso_label
_atom_site_aniso_type_symbol
_atom_site_aniso_U_11
_atom_site_aniso_U_22
_atom_site_aniso_U_33
_atom_site_aniso_U_12
_atom_site_aniso_U_13
_atom_site_aniso_U_23
Re1 Re7+ 0.0271(14) 0.0271(14) 0.041(2) 0. 0. 0.
Cl1 Cl1- 0.032(4) 0.025(4) 0.036(8) 0.004(3) 0.000(4) -0.001(3)
