
#(C) 2017 by FIZ Karlsruhe - Leibniz Institute for Information Infrastructure.  All rights reserved.
data_41928-ICSD
_database_code_ICSD 41928
_audit_creation_date 2000-07-15
_chemical_name_systematic 'Dimagnesium dialuminum selenide'
_chemical_formula_structural 'Mg2 Al2 Se5'
_chemical_formula_sum 'Al2 Mg2 Se5'
_chemical_name_structure_type Bi2Pb2Se5
_exptl_crystal_density_diffrn 3.96
_publ_section_title

;
Zur Darstellung und Strukturchemie ternaerer Selenide des Magnesiums mit
Indium aund Aluminium
;
loop_
_citation_id
_citation_journal_full
_citation_year
_citation_journal_volume
_citation_page_first
_citation_page_last
_citation_journal_id_ASTM
primary 'Zeitschrift fuer Anorganische und Allgemeine Chemie (1950) (DE)' 1976
426 260 268 ZAACAB
loop_
_publ_author_name
'Dotzel, P.'
'Schaefer, H.'
'Schoen, G.'
_cell_length_a 3.88(1)
_cell_length_b 3.88(1)
_cell_length_c 16.00(3)
_cell_angle_alpha 90.
_cell_angle_beta 90.
_cell_angle_gamma 120.
_cell_volume 208.6
_cell_formula_units_Z 1
_symmetry_space_group_name_H-M 'P -3 m 1'
_symmetry_Int_Tables_number 164
_refine_ls_R_factor_all 0.137
loop_
_symmetry_equiv_pos_site_id
_symmetry_equiv_pos_as_xyz
1 'x-y, -y, -z'
2 '-x, -x+y, -z'
3 'y, x, -z'
4 'x-y, x, -z'
5 'y, -x+y, -z'
6 '-x, -y, -z'
7 '-x+y, y, z'
8 'x, x-y, z'
9 '-y, -x, z'
10 '-x+y, -x, z'
11 '-y, x-y, z'
12 'x, y, z'
loop_
_atom_type_symbol
_atom_type_oxidation_number
Se2- -2
Mg2+ 2
Al3+ 3
loop_
_atom_site_label
_atom_site_type_symbol
_atom_site_symmetry_multiplicity
_atom_site_Wyckoff_symbol
_atom_site_fract_x
_atom_site_fract_y
_atom_site_fract_z
_atom_site_B_iso_or_equiv
_atom_site_occupancy
_atom_site_attached_hydrogens
Se1 Se2- 1 b 0 0 0.5 0.004 1. 0
Se2 Se2- 2 d 0.3333 0.6667 0.319(1) 0.006 1. 0
Se3 Se2- 2 d 0.3333 0.6667 0.899(1) 0.005 1. 0
Mg1 Mg2+ 2 d 0.3333 0.6667 0.587(3) 0.019 1. 0
Al1 Al3+ 2 d 0.3333 0.6667 0.169(3) 0.001 1. 0
#End of TTdata_41928-ICSD