
data_41926-ICSD
_database_code_ICSD 41926
_audit_creation_date 2000-07-15
_audit_update_record 2003-10-01
_chemical_name_systematic 'Magnesium dialuminum selenide'
_chemical_formula_structural 'Mg Al2 Se4'
_chemical_formula_sum 'Al2 Mg1 Se4'
_chemical_name_structure_type In2ZnS4(hR7)
_exptl_crystal_density_diffrn 3.93
_cell_length_a 3.88(1)
_cell_length_b 3.88(1)
_cell_length_c 38.34(5)
_cell_angle_alpha 90.
_cell_angle_beta 90.
_cell_angle_gamma 120.
_cell_volume 499.86
_cell_formula_units_Z 3
_symmetry_space_group_name_H-M 'R 3 m H'
_symmetry_Int_Tables_number 160
_refine_ls_R_factor_all 0.142
loop_
_symmetry_equiv_pos_site_id
_symmetry_equiv_pos_as_xyz
1 '-x+y, y, z'
2 'x, x-y, z'
3 '-y, -x, z'
4 '-x+y, -x, z'
5 '-y, x-y, z'
6 'x, y, z'
7 '-x+y+2/3, y+1/3, z+1/3'
8 'x+2/3, x-y+1/3, z+1/3'
9 '-y+2/3, -x+1/3, z+1/3'
10 '-x+y+2/3, -x+1/3, z+1/3'
11 '-y+2/3, x-y+1/3, z+1/3'
12 'x+2/3, y+1/3, z+1/3'
13 '-x+y+1/3, y+2/3, z+2/3'
14 'x+1/3, x-y+2/3, z+2/3'
15 '-y+1/3, -x+2/3, z+2/3'
16 '-x+y+1/3, -x+2/3, z+2/3'
17 '-y+1/3, x-y+2/3, z+2/3'
18 'x+1/3, y+2/3, z+2/3'
loop_
_atom_type_symbol
_atom_type_oxidation_number
Se2- -2
Al3+ 3
Mg2+ 2
loop_
_atom_site_label
_atom_site_type_symbol
_atom_site_symmetry_multiplicity
_atom_site_Wyckoff_symbol
_atom_site_fract_x
_atom_site_fract_y
_atom_site_fract_z
_atom_site_B_iso_or_equiv
_atom_site_occupancy
_atom_site_attached_hydrogens
Se1 Se2- 3 a 0 0 0.044(1) 0.001 1. 0
Se2 Se2- 3 a 0 0 0.291(1) 0.001 1. 0
Se3 Se2- 3 a 0 0 0.465(1) 0.004 1. 0
Se4 Se2- 3 a 0 0 0.869(1) 0.003 1. 0
Al1 Al3+ 3 a 0 0 0.933(3) 0.002 1. 0
Al2 Al3+ 3 a 0 0 0.404(3) 0.022 1. 0
Mg1 Mg2+ 3 a 0 0 0.167(3) 0.002 1. 0
