
#(C) 2017 by FIZ Karlsruhe - Leibniz Institute for Information Infrastructure.  All rights reserved.
data_419358-ICSD
_database_code_ICSD 419358
_audit_creation_date 2009-02-01
_chemical_name_systematic 'Yttrium(III) rhodium(III) boride (1/1/4)'
_chemical_formula_structural 'Y Rh B4'
_chemical_formula_sum 'B4 Rh1 Y1'
_chemical_name_structure_type FeSmB4-CrYB4
_exptl_crystal_density_diffrn 6.34
_cell_measurement_temperature 295.
_publ_section_title

;
Synthesis, chemical bonding and physical properties of RE R B4 (RE = Y, Dy-Lu)
;
loop_
_citation_id
_citation_journal_full
_citation_year
_citation_journal_volume
_citation_page_first
_citation_page_last
_citation_journal_id_ASTM
primary 'Journal of Solid State Chemistry' 2008 181 1983 1991 JSSCBI
loop_
_publ_author_name
'Veremchuk, I.'
'Mori, T.'
'Prots', Yu.'
'Schnelle, W.'
'Leithe Jasper, A.'
'Kohout, M.'
'Grin', Yu.'
_cell_length_a 5.9553(2)
_cell_length_b 11.5494(4)
_cell_length_c 3.5548(2)
_cell_angle_alpha 90
_cell_angle_beta 90
_cell_angle_gamma 90
_cell_volume 244.5
_cell_formula_units_Z 4
_symmetry_space_group_name_H-M 'P b a m'
_symmetry_Int_Tables_number 55
_refine_ls_R_factor_all 0.031
loop_
_symmetry_equiv_pos_site_id
_symmetry_equiv_pos_as_xyz
1 'x+1/2, -y+1/2, z'
2 '-x+1/2, y+1/2, z'
3 'x, y, -z'
4 '-x, -y, -z'
5 '-x+1/2, y+1/2, -z'
6 'x+1/2, -y+1/2, -z'
7 '-x, -y, z'
8 'x, y, z'
loop_
_atom_type_symbol
_atom_type_oxidation_number
Y3+ 3
Rh3+ 3
B1- -1.5
loop_
_atom_site_label
_atom_site_type_symbol
_atom_site_symmetry_multiplicity
_atom_site_Wyckoff_symbol
_atom_site_fract_x
_atom_site_fract_y
_atom_site_fract_z
_atom_site_B_iso_or_equiv
_atom_site_occupancy
_atom_site_attached_hydrogens
Y1 Y3+ 4 g 0.36873(8) 0.14899(4) 0 0.00424(1) 1. 0
Rh1 Rh3+ 4 g 0.85843(6) 0.09396(3) 0 0.00430(1) 1. 0
B1 B1- 4 h 0.0213(9) 0.1925(5) 0.5 0.0064(10) 1. 0
B2 B1- 4 h 0.1128(10) 0.0474(4) 0.5 0.0056(9) 1. 0
B3 B1- 4 h 0.6374(9) 0.0307(4) 0.5 0.0059(9) 1. 0
B4 B1- 4 h 0.7092(9) 0.1869(4) 0.5 0.0052(9) 1. 0
loop_
_atom_site_aniso_label
_atom_site_aniso_type_symbol
_atom_site_aniso_U_11
_atom_site_aniso_U_22
_atom_site_aniso_U_33
_atom_site_aniso_U_12
_atom_site_aniso_U_13
_atom_site_aniso_U_23
Y1 Y3+ 0.0060(2) 0.0034(2) 0.0033(3) -0.00050(2) 0 0
Rh1 Rh3+ 0.0060(2) 0.0030(2) 0.0039(2) 0.00011(1) 0 0
#End of TTdata_419358-ICSD