
#(C) 2017 by FIZ Karlsruhe - Leibniz Institute for Information Infrastructure.  All rights reserved.
data_419467-ICSD
_database_code_ICSD 419467
_audit_creation_date 2010-08-01
_chemical_name_systematic 'Oxohexabarium bis(trinitridoosmate(IV))'
_chemical_formula_structural '(Ba6 O) (Os N3)2'
_chemical_formula_sum 'Ba6 N6 O1 Os2'
_chemical_name_structure_type Er3Ni2
_exptl_crystal_density_diffrn 6.56
_cell_measurement_temperature 300.
_publ_section_title
'Synthesis, crystal structure, bonding and properties of (Ba6 O) (Os N3)2'
loop_
_citation_id
_citation_journal_full
_citation_year
_citation_journal_volume
_citation_page_first
_citation_page_last
_citation_journal_id_ASTM
primary 'Chemistry - an Asian Journal' 2008 2008 3 1983 CAAJBI
loop_
_publ_author_name
'Schmidt, C.L.'
'Wedig, U.'
'Dinnebier, R.'
'Jansen, M.'
_cell_length_a 8.112(1)
_cell_length_b 8.112(1)
_cell_length_c 17.390(1)
_cell_angle_alpha 90.
_cell_angle_beta 90.
_cell_angle_gamma 120.
_cell_volume 991.03
_cell_formula_units_Z 3
_symmetry_space_group_name_H-M 'R -3 H'
_symmetry_Int_Tables_number 148
_refine_ls_R_factor_all 0.0178
loop_
_symmetry_equiv_pos_site_id
_symmetry_equiv_pos_as_xyz
1 'x-y, x, -z'
2 'y, -x+y, -z'
3 '-x, -y, -z'
4 '-x+y, -x, z'
5 '-y, x-y, z'
6 'x, y, z'
7 'x-y+2/3, x+1/3, -z+1/3'
8 'y+2/3, -x+y+1/3, -z+1/3'
9 '-x+2/3, -y+1/3, -z+1/3'
10 '-x+y+2/3, -x+1/3, z+1/3'
11 '-y+2/3, x-y+1/3, z+1/3'
12 'x+2/3, y+1/3, z+1/3'
13 'x-y+1/3, x+2/3, -z+2/3'
14 'y+1/3, -x+y+2/3, -z+2/3'
15 '-x+1/3, -y+2/3, -z+2/3'
16 '-x+y+1/3, -x+2/3, z+2/3'
17 '-y+1/3, x-y+2/3, z+2/3'
18 'x+1/3, y+2/3, z+2/3'
loop_
_atom_type_symbol
_atom_type_oxidation_number
Os4+ 4
Ba2+ 2
N3- -3
O2- -2
loop_
_atom_site_label
_atom_site_type_symbol
_atom_site_symmetry_multiplicity
_atom_site_Wyckoff_symbol
_atom_site_fract_x
_atom_site_fract_y
_atom_site_fract_z
_atom_site_B_iso_or_equiv
_atom_site_occupancy
_atom_site_attached_hydrogens
Os1 Os4+ 6 c 0. 0. 0.247(8) 0.58(2) 1. 0
Ba1 Ba2+ 18 f 0.317(3) 0.231(2) 0.416(4) 0.58(2) 1. 0
N1 N3- 18 f 0.210(7) 0.225(9) 0.240(4) 0.71(4) 1. 0
O1 O2- 3 b 0. 0. 0.5 0.71(4) 1. 0
#End of TTdata_419467-ICSD