
#(C) 2017 by FIZ Karlsruhe - Leibniz Institute for Information Infrastructure.  All rights reserved.
data_41959-ICSD
_database_code_ICSD 41959
_audit_creation_date 2000-07-15
_audit_update_record 2009-08-01
_chemical_name_systematic 'Calcium telluride - HP'
_chemical_formula_structural 'Ca Te'
_chemical_formula_sum 'Ca1 Te1'
_exptl_crystal_density_diffrn 6.1
_cell_measurement_pressure 24700000.
_publ_section_title

;
Structural phase transformations and the equations of state of calcium
chalcogenides at high pressure
;
loop_
_citation_id
_citation_journal_full
_citation_year
_citation_journal_volume
_citation_page_first
_citation_page_last
_citation_journal_id_ASTM
primary 'Physical Review, Serie 3. B - Solid State (1,1970-17,1977)' 1994 50
16232 16237 PLRBAQ
loop_
_publ_author_name
'Luo, H.'
'Greene, R.G.'
'Ghandehari, K.'
'Li, T.'
'Ruoff, A.L.'
_cell_length_a 8.061
_cell_length_b 7.362
_cell_length_c 3.076
_cell_angle_alpha 90.
_cell_angle_beta 90.
_cell_angle_gamma 90.
_cell_volume 182.55
_cell_formula_units_Z 4
_symmetry_space_group_name_H-M 'P b n m'
_symmetry_Int_Tables_number 62
loop_
_symmetry_equiv_pos_site_id
_symmetry_equiv_pos_as_xyz
1 '-x+1/2, y+1/2, z'
2 'x, y, -z+1/2'
3 'x+1/2, -y+1/2, z+1/2'
4 '-x, -y, -z'
5 'x+1/2, -y+1/2, -z'
6 '-x, -y, z+1/2'
7 '-x+1/2, y+1/2, -z+1/2'
8 'x, y, z'
loop_
_atom_type_symbol
_atom_type_oxidation_number
Ca2+ 2
Te2- -2
loop_
_atom_site_label
_atom_site_type_symbol
_atom_site_symmetry_multiplicity
_atom_site_Wyckoff_symbol
_atom_site_fract_x
_atom_site_fract_y
_atom_site_fract_z
_atom_site_B_iso_or_equiv
_atom_site_occupancy
_atom_site_attached_hydrogens
Ca1 Ca2+ 4 c 0.646 0.031 0.25 . 1. 0
Te1 Te2- 4 c 0.527 0.346 0.25 . 1. 0
#End of TTdata_41959-ICSD