
#(C) 2017 by FIZ Karlsruhe - Leibniz Institute for Information Infrastructure.  All rights reserved.
data_420205-ICSD
_database_code_ICSD 420205
_audit_creation_date 2009-08-01
_audit_update_record 2011-02-01
_chemical_name_systematic 'Yttrium zinc arsenide oxide'
_chemical_formula_structural 'Y Zn As O'
_chemical_formula_sum 'As1 O1 Y1 Zn1'
_chemical_name_structure_type ZrCuSiAs-CuHfSi2
_exptl_crystal_density_diffrn 5.93
_cell_measurement_temperature 293.
_publ_section_title

;
Structure and optical properties of the arsenide oxides RE Zn As O (RE = Y,
La-Nd, Sm, Gd-Er)
;
loop_
_citation_id
_citation_journal_full
_citation_year
_citation_journal_volume
_citation_page_first
_citation_page_last
_citation_journal_id_ASTM
primary 'Zeitschrift fuer Anorganische und Allgemeine Chemie (1950) (DE)' 2009
635 936 941 ZAACAB
loop_
_publ_author_name
'Lincke, H.'
'Glaum, R.'
'Dittrich, V.'
'Moeller, M.H.'
'Poettgen, R.'
_cell_length_a 3.9423(3)
_cell_length_b 3.9423(3)
_cell_length_c 8.840(1)
_cell_angle_alpha 90.
_cell_angle_beta 90.
_cell_angle_gamma 90.
_cell_volume 137.39
_cell_formula_units_Z 2
_symmetry_space_group_name_H-M 'P 4/n m m Z'
_symmetry_Int_Tables_number 129
_refine_ls_R_factor_all 0.0172
loop_
_symmetry_equiv_pos_site_id
_symmetry_equiv_pos_as_xyz
1 'y+1/2, x+1/2, -z'
2 '-y, x+1/2, -z'
3 'y+1/2, -x, -z'
4 '-y, -x, -z'
5 'x+1/2, y+1/2, -z'
6 '-x, y+1/2, -z'
7 'x+1/2, -y, -z'
8 '-x, -y, -z'
9 '-y+1/2, -x+1/2, z'
10 'y, -x+1/2, z'
11 '-y+1/2, x, z'
12 'y, x, z'
13 '-x+1/2, -y+1/2, z'
14 'x, -y+1/2, z'
15 '-x+1/2, y, z'
16 'x, y, z'
loop_
_atom_type_symbol
_atom_type_oxidation_number
Y0+ 0
Zn0+ 0
As0+ 0
O0+ 0
loop_
_atom_site_label
_atom_site_type_symbol
_atom_site_symmetry_multiplicity
_atom_site_Wyckoff_symbol
_atom_site_fract_x
_atom_site_fract_y
_atom_site_fract_z
_atom_site_B_iso_or_equiv
_atom_site_occupancy
_atom_site_attached_hydrogens
Y1 Y0+ 2 c 0.25 0.25 0.12168(5) 0.00642(14) 1 0
Zn1 Zn0+ 2 b 0.75 0.25 0.5 0.01148(16) 1 0
As1 As0+ 2 c 0.25 0.25 0.68250(6) 0.00863(14) 1 0
O1 O0+ 2 a 0.75 0.25 0. 0.0065(5) 1 0
loop_
_atom_site_aniso_label
_atom_site_aniso_type_symbol
_atom_site_aniso_U_11
_atom_site_aniso_U_22
_atom_site_aniso_U_33
_atom_site_aniso_U_12
_atom_site_aniso_U_13
_atom_site_aniso_U_23
Y1 Y0+ 0.00579(15) 0.00579(15) 0.0077(2) 0. 0. 0.
Zn1 Zn0+ 0.00972(19) 0.00972(19) 0.0150(3) 0. 0. 0.
As1 As0+ 0.00877(17) 0.00877(17) 0.0083(2) 0. 0. 0.
O1 O0+ 0.0059(8) 0.0059(8) 0.0079(12) 0. 0. 0.
#End of TTdata_420205-ICSD