
data_420356-ICSD
_database_code_ICSD 420356
_audit_creation_date 2009-08-01
_chemical_name_systematic 'Platinum scandium silicide (9/5/7)'
_chemical_formula_structural 'Pt9 Sc5 Si7'
_chemical_formula_sum 'Pt9 Sc5 Si7'
_chemical_name_structure_type Zr2Fe12P7
_exptl_crystal_density_diffrn 10.88
_cell_measurement_temperature 293.
_cell_length_a 9.9418(5)
_cell_length_b 9.9418(5)
_cell_length_c 3.8832(2)
_cell_angle_alpha 90.
_cell_angle_beta 90.
_cell_angle_gamma 120.
_cell_volume 332.39
_cell_formula_units_Z 1
_symmetry_space_group_name_H-M 'P -6'
_symmetry_Int_Tables_number 174
_refine_ls_R_factor_all 0.0381
loop_
_symmetry_equiv_pos_site_id
_symmetry_equiv_pos_as_xyz
1 '-x+y, -x, -z'
2 '-y, x-y, -z'
3 'x, y, -z'
4 '-x+y, -x, z'
5 '-y, x-y, z'
6 'x, y, z'
loop_
_atom_type_symbol
_atom_type_oxidation_number
Pt0+ 0
Sc0+ 0
Si0+ 0
loop_
_atom_site_label
_atom_site_type_symbol
_atom_site_symmetry_multiplicity
_atom_site_Wyckoff_symbol
_atom_site_fract_x
_atom_site_fract_y
_atom_site_fract_z
_atom_site_B_iso_or_equiv
_atom_site_occupancy
_atom_site_attached_hydrogens
Pt1 Pt0+ 3 j 0.12291(10) 0.28536(10) 0. 0.00681(19) 1 0
Pt2 Pt0+ 3 j 0.43376(11) 0.35305(10) 0. 0.00767(18) 1 0
Pt3 Pt0+ 3 k 0.05166(10) 0.44865(10) 0.5 0.00706(19) 1 0
Sc1 Sc0+ 3 k 0.2274(5) 0.1244(6) 0.5 0.0076(7) 1 0
Sc2 Sc0+ 1 f 0.6667 0.3333 0.5 0.0084(14) 1 0
Sc3 Sc0+ 1 c 0.3333 0.6667 0. 0.0110(15) 1 0
Si1 Si0+ 1 a 0. 0. 0. 0.011(2) 1 0
Si2 Si0+ 3 j 0.4291(8) 0.1148(7) 0. 0.0047(11) 1 0
Si3 Si0+ 3 k 0.2844(7) 0.4275(8) 0.5 0.0058(12) 1 0
loop_
_atom_site_aniso_label
_atom_site_aniso_type_symbol
_atom_site_aniso_U_11
_atom_site_aniso_U_22
_atom_site_aniso_U_33
_atom_site_aniso_U_12
_atom_site_aniso_U_13
_atom_site_aniso_U_23
Pt1 Pt0+ 0.0068(4) 0.0073(4) 0.0063(4) 0.0035(3) 0. 0.
Pt2 Pt0+ 0.0054(4) 0.0067(4) 0.0100(4) 0.0023(3) 0. 0.
Pt3 Pt0+ 0.0087(4) 0.0073(4) 0.0060(4) 0.0046(4) 0. 0.
Sc1 Sc0+ 0.0043(18) 0.011(2) 0.0060(19) 0.0032(16) 0. 0.
Sc2 Sc0+ 0.010(2) 0.010(2) 0.006(3) 0.0049(10) 0. 0.
Sc3 Sc0+ 0.010(2) 0.010(2) 0.013(4) 0.0050(12) 0. 0.
Si1 Si0+ 0.008(3) 0.008(3) 0.015(6) 0.0042(16) 0. 0.
Si2 Si0+ 0.004(3) 0.002(2) 0.007(3) 0.000(2) 0. 0.
Si3 Si0+ 0.005(3) 0.006(3) 0.005(3) 0.002(2) 0. 0.
