
data_420341-ICSD
_database_code_ICSD 420341
_audit_creation_date 2010-02-01
_chemical_name_systematic 'Barium gold arsenide (1/1/1)'
_chemical_formula_structural 'Ba Au As'
_chemical_formula_sum 'As1 Au1 Ba1'
_chemical_name_structure_type ZrBeSi
_exptl_crystal_density_diffrn 8.45
_cell_measurement_temperature 293.
_cell_length_a 4.5353(5)
_cell_length_b 4.5353(5)
_cell_length_c 9.0270(10)
_cell_angle_alpha 90.
_cell_angle_beta 90.
_cell_angle_gamma 120.
_cell_volume 160.8
_cell_formula_units_Z 2
_symmetry_space_group_name_H-M 'P 63/m m c'
_symmetry_Int_Tables_number 194
_refine_ls_R_factor_all 0.0255
loop_
_symmetry_equiv_pos_site_id
_symmetry_equiv_pos_as_xyz
1 'x, x-y, -z+1/2'
2 '-x+y, y, -z+1/2'
3 '-y, -x, -z+1/2'
4 '-x+y, -x, -z+1/2'
5 '-y, x-y, -z+1/2'
6 'x, y, -z+1/2'
7 '-x, -x+y, z+1/2'
8 'x-y, -y, z+1/2'
9 'y, x, z+1/2'
10 'x-y, x, z+1/2'
11 'y, -x+y, z+1/2'
12 '-x, -y, z+1/2'
13 '-x, -x+y, -z'
14 'x-y, -y, -z'
15 'y, x, -z'
16 'x-y, x, -z'
17 'y, -x+y, -z'
18 '-x, -y, -z'
19 'x, x-y, z'
20 '-x+y, y, z'
21 '-y, -x, z'
22 '-x+y, -x, z'
23 '-y, x-y, z'
24 'x, y, z'
loop_
_atom_type_symbol
_atom_type_oxidation_number
Au1+ 1
Ba2+ 2
As3- -3
loop_
_atom_site_label
_atom_site_type_symbol
_atom_site_symmetry_multiplicity
_atom_site_Wyckoff_symbol
_atom_site_fract_x
_atom_site_fract_y
_atom_site_fract_z
_atom_site_B_iso_or_equiv
_atom_site_occupancy
_atom_site_attached_hydrogens
Au1 Au1+ 2 d 0.3333 0.6667 0.75 0.0114(2) 1 0
Ba1 Ba2+ 2 a 1. 0. 0. 0.0102(2) 1 0
As1 As3- 2 c 0.3333 0.6667 0.25 0.0095(3) 1 0
loop_
_atom_site_aniso_label
_atom_site_aniso_type_symbol
_atom_site_aniso_U_11
_atom_site_aniso_U_22
_atom_site_aniso_U_33
_atom_site_aniso_U_12
_atom_site_aniso_U_13
_atom_site_aniso_U_23
Au1 Au1+ 0.0106(2) 0.0106(2) 0.0132(3) 0.00529(12) 0. 0.
Ba1 Ba2+ 0.0096(3) 0.0096(3) 0.0114(4) 0.00479(15) 0. 0.
As1 As3- 0.0063(4) 0.0063(4) 0.0161(6) 0.00313(18) 0. 0.
