
#(C) 2017 by FIZ Karlsruhe - Leibniz Institute for Information Infrastructure.  All rights reserved.
data_420415-ICSD
_database_code_ICSD 420415
_audit_creation_date 2012-08-01
_chemical_name_systematic 'Scandium cobalt silicide (1/1/1)'
_chemical_formula_structural 'Sc Co Si'
_chemical_formula_sum 'Co1 Sc1 Si1'
_chemical_name_structure_type TiNiSi-MgSrSi
_exptl_crystal_density_diffrn 4.95
_cell_measurement_temperature 293.
_publ_section_title

;
A 45Sc and 29Si solid state NMR study of the silicides Sc T Si (T = Fe, Co,
Ni, Cu, Ru, Rh, Pd, Ir, Pt)
;
loop_
_citation_id
_citation_journal_full
_citation_year
_citation_journal_volume
_citation_page_first
_citation_page_last
_citation_journal_id_ASTM
primary 'Journal of Solid State Chemistry' 2011 184 3303 3309 JSSCBI
loop_
_publ_author_name
'Harmening, T.'
'Eckert, H.'
'Fehse, C.M.'
'Sebastian, C.P.'
'Poettgen, R.'
_cell_length_a 6.416(2)
_cell_length_b 3.9781(9)
_cell_length_c 6.937(2)
_cell_angle_alpha 90.
_cell_angle_beta 90.
_cell_angle_gamma 90.
_cell_volume 177.06
_cell_formula_units_Z 4
_symmetry_space_group_name_H-M 'P n m a'
_symmetry_Int_Tables_number 62
_refine_ls_R_factor_all 0.0139
loop_
_symmetry_equiv_pos_site_id
_symmetry_equiv_pos_as_xyz
1 'x+1/2, y, -z+1/2'
2 'x, -y+1/2, z'
3 '-x+1/2, y+1/2, z+1/2'
4 '-x, -y, -z'
5 '-x+1/2, -y, z+1/2'
6 '-x, y+1/2, -z'
7 'x+1/2, -y+1/2, -z+1/2'
8 'x, y, z'
loop_
_atom_type_symbol
_atom_type_oxidation_number
Sc0+ 0
Co0+ 0
Si0+ 0
loop_
_atom_site_label
_atom_site_type_symbol
_atom_site_symmetry_multiplicity
_atom_site_Wyckoff_symbol
_atom_site_fract_x
_atom_site_fract_y
_atom_site_fract_z
_atom_site_B_iso_or_equiv
_atom_site_occupancy
_atom_site_attached_hydrogens
Sc1 Sc0+ 4 c -0.00231(4) 0.25 0.69494(4) 0.00639(7) 1 0
Co1 Co0+ 4 c 0.15440(3) 0.25 0.06068(3) 0.00594(7) 1 0
Si1 Si0+ 4 c 0.29105(7) 0.25 0.38981(7) 0.00622(9) 1 0
loop_
_atom_site_aniso_label
_atom_site_aniso_type_symbol
_atom_site_aniso_U_11
_atom_site_aniso_U_22
_atom_site_aniso_U_33
_atom_site_aniso_U_12
_atom_site_aniso_U_13
_atom_site_aniso_U_23
Sc1 Sc0+ 0.00671(12) 0.00648(13) 0.00599(12) 0. -0.00077(9) 0.
Co1 Co0+ 0.00658(10) 0.00575(10) 0.00549(10) 0. 0.00031(7) 0.
Si1 Si0+ 0.00644(17) 0.00523(18) 0.00698(18) 0. -0.00012(14) 0.
#End of TTdata_420415-ICSD