
data_420577-ICSD
_database_code_ICSD 420577
_audit_creation_date 2009-08-01
_chemical_name_systematic 'Calcium cadmium (1/2)'
_chemical_formula_structural 'Ca Cd2'
_chemical_formula_sum 'Ca1 Cd2'
_chemical_name_structure_type Laves(2H)-MgZn2
_exptl_crystal_density_diffrn 5.87
_cell_measurement_temperature 293.
_cell_length_a 5.9971(9)
_cell_length_b 5.9971(9)
_cell_length_c 9.6275(16)
_cell_angle_alpha 90.
_cell_angle_beta 90.
_cell_angle_gamma 120.
_cell_volume 299.87
_cell_formula_units_Z 4
_symmetry_space_group_name_H-M 'P 63/m m c'
_symmetry_Int_Tables_number 194
_refine_ls_R_factor_all 0.0309
loop_
_symmetry_equiv_pos_site_id
_symmetry_equiv_pos_as_xyz
1 'x, x-y, -z+1/2'
2 '-x+y, y, -z+1/2'
3 '-y, -x, -z+1/2'
4 '-x+y, -x, -z+1/2'
5 '-y, x-y, -z+1/2'
6 'x, y, -z+1/2'
7 '-x, -x+y, z+1/2'
8 'x-y, -y, z+1/2'
9 'y, x, z+1/2'
10 'x-y, x, z+1/2'
11 'y, -x+y, z+1/2'
12 '-x, -y, z+1/2'
13 '-x, -x+y, -z'
14 'x-y, -y, -z'
15 'y, x, -z'
16 'x-y, x, -z'
17 'y, -x+y, -z'
18 '-x, -y, -z'
19 'x, x-y, z'
20 '-x+y, y, z'
21 '-y, -x, z'
22 '-x+y, -x, z'
23 '-y, x-y, z'
24 'x, y, z'
loop_
_atom_type_symbol
_atom_type_oxidation_number
Ca0+ 0
Cd0+ 0
loop_
_atom_site_label
_atom_site_type_symbol
_atom_site_symmetry_multiplicity
_atom_site_Wyckoff_symbol
_atom_site_fract_x
_atom_site_fract_y
_atom_site_fract_z
_atom_site_B_iso_or_equiv
_atom_site_occupancy
_atom_site_attached_hydrogens
Ca1 Ca0+ 4 f 0.3333 0.6667 0.0601(3) 0.0184(5) 1 0
Cd1 Cd0+ 2 a 0. 0. 0. 0.0185(4) 1 0
Cd2 Cd0+ 6 h 0.33994(16) 0.16997(8) 0.25 0.0189(3) 1 0
loop_
_atom_site_aniso_label
_atom_site_aniso_type_symbol
_atom_site_aniso_U_11
_atom_site_aniso_U_22
_atom_site_aniso_U_33
_atom_site_aniso_U_12
_atom_site_aniso_U_13
_atom_site_aniso_U_23
Ca1 Ca0+ 0.0184(7) 0.0184(7) 0.0185(12) 0.0092(4) 0. 0.
Cd1 Cd0+ 0.0198(5) 0.0198(5) 0.0160(6) 0.0099(2) 0. 0.
Cd2 Cd0+ 0.0156(4) 0.0202(4) 0.0195(4) 0.0078(2) 0. 0.
