
#(C) 2017 by FIZ Karlsruhe - Leibniz Institute for Information Infrastructure.  All rights reserved.
data_420728-ICSD
_database_code_ICSD 420728
_audit_creation_date 2010-02-01
_chemical_name_systematic 'Rhodium tin sulfide (3/2/2)'
_chemical_formula_structural 'Rh3 Sn2 S2'
_chemical_formula_sum 'Rh3 S2 Sn2'
_chemical_name_structure_type Ni3Pb2S2
_exptl_crystal_density_diffrn 8.26
_cell_measurement_temperature 293.
_publ_section_title

;
Half antiperovskites: IV. Crystallographic and electronic structure
investigations on A2 Rh3 S2 (A = In, Sn, Tl, Pb, Bi)
;
loop_
_citation_id
_citation_journal_full
_citation_year
_citation_journal_volume
_citation_page_first
_citation_page_last
_citation_journal_id_ASTM
primary 'Zeitschrift fuer Anorganische und Allgemeine Chemie (1950) (DE)' 2009
635 2410 2428 ZAACAB
loop_
_publ_author_name
'Anusca, I.'
'Schmid, A.'
'Peter, Ph.'
'Rothballer, J.'
'Pielnhofer, F.'
'Weihrich, R.'
_cell_length_a 5.6268(3)
_cell_length_b 5.6268(3)
_cell_length_c 13.3067(7)
_cell_angle_alpha 90.
_cell_angle_beta 90.
_cell_angle_gamma 120.
_cell_volume 364.86
_cell_formula_units_Z 3
_symmetry_space_group_name_H-M 'R -3 m H'
_symmetry_Int_Tables_number 166
_refine_ls_R_factor_all 0.0278
loop_
_symmetry_equiv_pos_site_id
_symmetry_equiv_pos_as_xyz
1 'x-y, -y, -z'
2 '-x, -x+y, -z'
3 'y, x, -z'
4 'x-y, x, -z'
5 'y, -x+y, -z'
6 '-x, -y, -z'
7 '-x+y, y, z'
8 'x, x-y, z'
9 '-y, -x, z'
10 '-x+y, -x, z'
11 '-y, x-y, z'
12 'x, y, z'
13 'x-y+2/3, -y+1/3, -z+1/3'
14 '-x+2/3, -x+y+1/3, -z+1/3'
15 'y+2/3, x+1/3, -z+1/3'
16 'x-y+2/3, x+1/3, -z+1/3'
17 'y+2/3, -x+y+1/3, -z+1/3'
18 '-x+2/3, -y+1/3, -z+1/3'
19 '-x+y+2/3, y+1/3, z+1/3'
20 'x+2/3, x-y+1/3, z+1/3'
21 '-y+2/3, -x+1/3, z+1/3'
22 '-x+y+2/3, -x+1/3, z+1/3'
23 '-y+2/3, x-y+1/3, z+1/3'
24 'x+2/3, y+1/3, z+1/3'
25 'x-y+1/3, -y+2/3, -z+2/3'
26 '-x+1/3, -x+y+2/3, -z+2/3'
27 'y+1/3, x+2/3, -z+2/3'
28 'x-y+1/3, x+2/3, -z+2/3'
29 'y+1/3, -x+y+2/3, -z+2/3'
30 '-x+1/3, -y+2/3, -z+2/3'
31 '-x+y+1/3, y+2/3, z+2/3'
32 'x+1/3, x-y+2/3, z+2/3'
33 '-y+1/3, -x+2/3, z+2/3'
34 '-x+y+1/3, -x+2/3, z+2/3'
35 '-y+1/3, x-y+2/3, z+2/3'
36 'x+1/3, y+2/3, z+2/3'
loop_
_atom_type_symbol
_atom_type_oxidation_number
Sn0+ 0
Rh0+ 0
S0+ 0
loop_
_atom_site_label
_atom_site_type_symbol
_atom_site_symmetry_multiplicity
_atom_site_Wyckoff_symbol
_atom_site_fract_x
_atom_site_fract_y
_atom_site_fract_z
_atom_site_B_iso_or_equiv
_atom_site_occupancy
_atom_site_attached_hydrogens
Sn1 Sn0+ 3 a 0. 0. 0. 0.0231(2) 1 0
Sn2 Sn0+ 3 b 0. 0. 0.5 0.0191(2) 1 0
Rh1 Rh0+ 9 d 0.5 0. 0.5 0.01858(19) 1 0
S1 S0+ 6 c 0. 0. 0.28804(17) 0.0188(5) 1 0
loop_
_atom_site_aniso_label
_atom_site_aniso_type_symbol
_atom_site_aniso_U_11
_atom_site_aniso_U_22
_atom_site_aniso_U_33
_atom_site_aniso_U_12
_atom_site_aniso_U_13
_atom_site_aniso_U_23
Sn1 Sn0+ 0.0265(3) 0.0265(3) 0.0164(4) 0.01327(15) 0. 0.
Sn2 Sn0+ 0.0144(3) 0.0144(3) 0.0286(5) 0.00720(13) 0. 0.
Rh1 Rh0+ 0.0209(3) 0.0152(3) 0.0178(4) 0.00760(15) -0.00011(9) -0.00022(17)
S1 S0+ 0.0265(3) 0.0265(3) 0.0164(4) 0.01327(15) 0. 0.
#End of TTdata_420728-ICSD