
#(C) 2017 by FIZ Karlsruhe - Leibniz Institute for Information Infrastructure.  All rights reserved.
data_420988-ICSD
_database_code_ICSD 420988
_audit_creation_date 2010-08-01
_chemical_name_systematic 'Dirhenium trioxide diphosphate'
_chemical_formula_structural 'Re2 O3 (P2 O7)'
_chemical_formula_sum 'O10 P2 Re2'
_exptl_crystal_density_diffrn 4.87
_cell_measurement_temperature 293.
_publ_section_title 'Rhenium(V)-oxidepyrophosphate Re2 O3 (P2 O7)'
loop_
_citation_id
_citation_journal_full
_citation_year
_citation_journal_volume
_citation_page_first
_citation_page_last
_citation_journal_id_ASTM
primary 'Zeitschrift fuer Anorganische und Allgemeine Chemie (1950) (DE)' 2010
636 144 148 ZAACAB
loop_
_publ_author_name
'Islam, S.M.'
'Glaum, R.'
_cell_length_a 12.2503(5)
_cell_length_b 12.6731(5)
_cell_length_c 5.2188(2)
_cell_angle_alpha 90
_cell_angle_beta 89.968(2)
_cell_angle_gamma 90
_cell_volume 810.21
_cell_formula_units_Z 4
_symmetry_space_group_name_H-M 'C 1 2/c 1'
_symmetry_Int_Tables_number 15
_refine_ls_R_factor_all 0.0233
loop_
_symmetry_equiv_pos_site_id
_symmetry_equiv_pos_as_xyz
1 'x, -y, z+1/2'
2 '-x, -y, -z'
3 '-x, y, -z+1/2'
4 'x, y, z'
5 'x+1/2, -y+1/2, z+1/2'
6 '-x+1/2, -y+1/2, -z'
7 '-x+1/2, y+1/2, -z+1/2'
8 'x+1/2, y+1/2, z'
loop_
_atom_type_symbol
_atom_type_oxidation_number
Re5+ 5
P5+ 5
O2- -2
loop_
_atom_site_label
_atom_site_type_symbol
_atom_site_symmetry_multiplicity
_atom_site_Wyckoff_symbol
_atom_site_fract_x
_atom_site_fract_y
_atom_site_fract_z
_atom_site_B_iso_or_equiv
_atom_site_occupancy
_atom_site_attached_hydrogens
Re1 Re5+ 8 f 0.649010(18) 0.402061(17) 0.24609(4) 0.00674(10) 1 0
P1 P5+ 8 f 0.88119(13) 0.27314(12) 0.2721(3) 0.0081(3) 1 0
O1 O2- 8 f 0.6696(3) 0.5159(3) 0.0286(8) 0.0099(8) 1 0
O2 O2- 4 e 0.5 0.4196(4) 0.25 0.0083(12) 1 0
O3 O2- 8 f 0.6297(3) 0.2689(3) 0.4559(8) 0.0119(9) 1 0
O4 O2- 8 f 0.1926(3) 0.3671(3) 0.2744(8) 0.0112(9) 1 0
O5 O2- 8 f 0.6281(4) 0.3118(3) -0.0717(8) 0.0170(10) 1 0
O6 O2- 4 e 0 0.3243(4) 0.25 0.0114(13) 1 0
loop_
_atom_site_aniso_label
_atom_site_aniso_type_symbol
_atom_site_aniso_U_11
_atom_site_aniso_U_22
_atom_site_aniso_U_33
_atom_site_aniso_U_12
_atom_site_aniso_U_13
_atom_site_aniso_U_23
Re1 Re5+ 0.00685(14) 0.00623(14) 0.00714(14) 0.00023(9) -0.00026(9) 0.00007(9)
P1 P5+ 0.0085(7) 0.0077(7) 0.0080(7) -0.0014(6) 0.0006(6) -0.0013(6)
O1 O2- 0.012(2) 0.009(2) 0.008(2) -0.0001(17) 0.0005(16) 0.0029(16)
O2 O2- 0.006(3) 0.006(3) 0.012(3) 0 0.000(2) 0
O3 O2- 0.015(2) 0.010(2) 0.010(2) -0.0027(17) 0.0024(18) 0.0057(17)
O4 O2- 0.007(2) 0.008(2) 0.019(2) -0.0028(16) 0.0004(18) -0.0050(17)
O5 O2- 0.021(2) 0.014(2) 0.016(2) -0.0032(19) -0.0002(19) -0.0062(18)
O6 O2- 0.008(3) 0.011(3) 0.015(3) 0 0.001(2) 0
#End of TTdata_420988-ICSD