
#(C) 2017 by FIZ Karlsruhe - Leibniz Institute for Information Infrastructure.  All rights reserved.
data_421092-ICSD
_database_code_ICSD 421092
_audit_creation_date 2010-08-01
_audit_update_record 2013-02-01
_chemical_name_systematic 'Tantalum rhodium germanide (1/1/1)'
_chemical_formula_structural 'Ta Rh Ge'
_chemical_formula_sum 'Ge1 Rh1 Ta1'
_chemical_name_structure_type TiNiSi-MgSrSi
_exptl_crystal_density_diffrn 12.94
_cell_measurement_temperature 293.
_publ_section_title 'Ta Rh Ge with TiNiSi - type structure'
loop_
_citation_id
_citation_journal_full
_citation_year
_citation_journal_volume
_citation_page_first
_citation_page_last
_citation_journal_id_ASTM
primary 'Zeitschrift fuer Naturforschung, B: Chemical Sciences' 2010 65 95 98
ZNBSEN
loop_
_publ_author_name
'Dinges, T.'
'Eul, M.'
'Poettgen, R.'
_cell_length_a 6.402(2)
_cell_length_b 3.832(2)
_cell_length_c 7.417(2)
_cell_angle_alpha 90.
_cell_angle_beta 90.
_cell_angle_gamma 90.
_cell_volume 181.96
_cell_formula_units_Z 4
_symmetry_space_group_name_H-M 'P n m a'
_symmetry_Int_Tables_number 62
_refine_ls_R_factor_all 0.027
loop_
_symmetry_equiv_pos_site_id
_symmetry_equiv_pos_as_xyz
1 'x+1/2, y, -z+1/2'
2 'x, -y+1/2, z'
3 '-x+1/2, y+1/2, z+1/2'
4 '-x, -y, -z'
5 '-x+1/2, -y, z+1/2'
6 '-x, y+1/2, -z'
7 'x+1/2, -y+1/2, -z+1/2'
8 'x, y, z'
loop_
_atom_type_symbol
_atom_type_oxidation_number
Ta0+ 0
Rh0+ 0
Ge0+ 0
loop_
_atom_site_label
_atom_site_type_symbol
_atom_site_symmetry_multiplicity
_atom_site_Wyckoff_symbol
_atom_site_fract_x
_atom_site_fract_y
_atom_site_fract_z
_atom_site_B_iso_or_equiv
_atom_site_occupancy
_atom_site_attached_hydrogens
Ta1 Ta0+ 4 c 0.97234(7) 0.25 0.67848(8) 0.00180(15) 1 0
Rh1 Rh0+ 4 c 0.35549(15) 0.25 0.43716(16) 0.0012(2) 1 0
Ge1 Ge0+ 4 c 0.74013(19) 0.25 0.3765(2) 0.0018(3) 1 0
loop_
_atom_site_aniso_label
_atom_site_aniso_type_symbol
_atom_site_aniso_U_11
_atom_site_aniso_U_22
_atom_site_aniso_U_33
_atom_site_aniso_U_12
_atom_site_aniso_U_13
_atom_site_aniso_U_23
Ta1 Ta0+ 0.0016(2) 0.0021(2) 0.0017(3) 0. 0.00020(19) 0.
Rh1 Rh0+ 0.0016(4) 0.0010(3) 0.0015(5) 0. -0.0003(3) 0.
Ge1 Ge0+ 0.0014(5) 0.0015(5) 0.0024(7) 0. 0.0002(4) 0.
#End of TTdata_421092-ICSD