
#(C) 2017 by FIZ Karlsruhe - Leibniz Institute for Information Infrastructure.  All rights reserved.
data_421256-ICSD
_database_code_ICSD 421256
_audit_creation_date 2011-02-01
_audit_update_record 2013-02-01
_chemical_name_systematic 'Scandium iridium silicide (3/1/3)'
_chemical_formula_structural 'Sc3 Ir Si3'
_chemical_formula_sum 'Ir1 Sc3 Si3'
_chemical_name_structure_type RhSc3Si3
_exptl_crystal_density_diffrn 5.77
_cell_measurement_temperature 293.
_publ_section_title

;
Ternary silicides Sc3 T Si3 (T = Ru, Rh, Ir, Pt) - structure, chemical bonding
and solid state NMR
;
loop_
_citation_id
_citation_journal_full
_citation_year
_citation_journal_volume
_citation_page_first
_citation_page_last
_citation_journal_id_ASTM
primary 'Zeitschrift fuer Anorganische und Allgemeine Chemie (1950) (DE)' 2010
636 1839 1850 ZAACAB
loop_
_publ_author_name
'Harmening, T.'
'Mohr, D.'
'Eckert, H.'
'Al Alam, A.'
'Matar, S.F.'
'Poettgen, R.'
_cell_length_a 11.607(2)
_cell_length_b 4.0284(6)
_cell_length_c 10.151(1)
_cell_angle_alpha 90.
_cell_angle_beta 90.
_cell_angle_gamma 90.
_cell_volume 474.64
_cell_formula_units_Z 4
_symmetry_space_group_name_H-M 'P n m a'
_symmetry_Int_Tables_number 62
_refine_ls_R_factor_all 0.0209
loop_
_symmetry_equiv_pos_site_id
_symmetry_equiv_pos_as_xyz
1 'x+1/2, y, -z+1/2'
2 'x, -y+1/2, z'
3 '-x+1/2, y+1/2, z+1/2'
4 '-x, -y, -z'
5 '-x+1/2, -y, z+1/2'
6 '-x, y+1/2, -z'
7 'x+1/2, -y+1/2, -z+1/2'
8 'x, y, z'
loop_
_atom_type_symbol
_atom_type_oxidation_number
Sc0+ 0
Ir0+ 0
Si0+ 0
loop_
_atom_site_label
_atom_site_type_symbol
_atom_site_symmetry_multiplicity
_atom_site_Wyckoff_symbol
_atom_site_fract_x
_atom_site_fract_y
_atom_site_fract_z
_atom_site_B_iso_or_equiv
_atom_site_occupancy
_atom_site_attached_hydrogens
Sc1 Sc0+ 4 c 0.51953(12) 0.25 0.62280(18) 0.0020(3) 1 0
Sc2 Sc0+ 4 c 0.10208(13) 0.25 0.57970(14) 0.0026(3) 1 0
Sc3 Sc0+ 4 c 0.29970(11) 0.25 0.84095(15) 0.0025(3) 1 0
Ir1 Ir0+ 4 c 0.17669(3) 0.25 0.11065(3) 0.00188(7) 1 0
Si1 Si0+ 4 c 0.3217(2) 0.25 0.48624(19) 0.0027(4) 1 0
Si2 Si0+ 4 c 0.34202(18) 0.25 0.2507(2) 0.0027(4) 1 0
Si3 Si0+ 4 c 0.0455(2) 0.25 0.3077(2) 0.0020(4) 1 0
loop_
_atom_site_aniso_label
_atom_site_aniso_type_symbol
_atom_site_aniso_U_11
_atom_site_aniso_U_22
_atom_site_aniso_U_33
_atom_site_aniso_U_12
_atom_site_aniso_U_13
_atom_site_aniso_U_23
Sc1 Sc0+ 0.0019(5) 0.0027(7) 0.0013(7) 0. -0.0015(6) 0.
Sc2 Sc0+ 0.0038(6) 0.0022(7) 0.0017(7) 0. -0.0004(5) 0.
Sc3 Sc0+ 0.0016(7) 0.0019(7) 0.0040(6) 0. -0.0006(5) 0.
Ir1 Ir0+ 0.00265(11) 0.00155(13) 0.00143(11) 0. -0.00024(15) 0.
Si1 Si0+ 0.0032(8) 0.0010(9) 0.0039(9) 0. -0.0003(10) 0.
Si2 Si0+ 0.0033(11) 0.0012(10) 0.0035(9) 0. -0.0001(8) 0.
Si3 Si0+ 0.0031(9) 0.0010(11) 0.0025(10) 0. 0.0007(8) 0.
#End of TTdata_421256-ICSD