
#(C) 2017 by FIZ Karlsruhe - Leibniz Institute for Information Infrastructure.  All rights reserved.
data_421254-ICSD
_database_code_ICSD 421254
_audit_creation_date 2011-02-01
_chemical_name_systematic 'Scandium ruthenium silicide (3/1/3)'
_chemical_formula_structural 'Sc3 Ru Si3'
_chemical_formula_sum 'Ru1 Sc3 Si3'
_chemical_name_structure_type RhSc3Si3
_exptl_crystal_density_diffrn 4.45
_cell_measurement_temperature 293.
_publ_section_title

;
Ternary silicides Sc3 T Si3 (T = Ru, Rh, Ir, Pt) - structure, chemical bonding
and solid state NMR
;
loop_
_citation_id
_citation_journal_full
_citation_year
_citation_journal_volume
_citation_page_first
_citation_page_last
_citation_journal_id_ASTM
primary 'Zeitschrift fuer Anorganische und Allgemeine Chemie (1950) (DE)' 2010
636 1839 1850 ZAACAB
loop_
_publ_author_name
'Harmening, T.'
'Mohr, D.'
'Eckert, H.'
'Al Alam, A.'
'Matar, S.F.'
'Poettgen, R.'
_cell_length_a 11.676(3)
_cell_length_b 3.9820(9)
_cell_length_c 10.269(2)
_cell_angle_alpha 90.
_cell_angle_beta 90.
_cell_angle_gamma 90.
_cell_volume 477.45
_cell_formula_units_Z 4
_symmetry_space_group_name_H-M 'P n m a'
_symmetry_Int_Tables_number 62
_refine_ls_R_factor_all 0.026
loop_
_symmetry_equiv_pos_site_id
_symmetry_equiv_pos_as_xyz
1 'x+1/2, y, -z+1/2'
2 'x, -y+1/2, z'
3 '-x+1/2, y+1/2, z+1/2'
4 '-x, -y, -z'
5 '-x+1/2, -y, z+1/2'
6 '-x, y+1/2, -z'
7 'x+1/2, -y+1/2, -z+1/2'
8 'x, y, z'
loop_
_atom_type_symbol
_atom_type_oxidation_number
Sc0+ 0
Ru0+ 0
Si0+ 0
loop_
_atom_site_label
_atom_site_type_symbol
_atom_site_symmetry_multiplicity
_atom_site_Wyckoff_symbol
_atom_site_fract_x
_atom_site_fract_y
_atom_site_fract_z
_atom_site_B_iso_or_equiv
_atom_site_occupancy
_atom_site_attached_hydrogens
Sc1 Sc0+ 4 c 0.51886(9) 0.25 0.62316(10) 0.00481(18) 1 0
Sc2 Sc0+ 4 c 0.10416(9) 0.25 0.57750(9) 0.00530(19) 1 0
Sc3 Sc0+ 4 c 0.29812(9) 0.25 0.83924(10) 0.00541(19) 1 0
Ru1 Ru0+ 4 c 0.17741(4) 0.25 0.10945(4) 0.00424(11) 1 0
Si1 Si0+ 4 c 0.32224(14) 0.25 0.48424(13) 0.0053(3) 1 0
Si2 Si0+ 4 c 0.34285(13) 0.25 0.24780(14) 0.0048(3) 1 0
Si3 Si0+ 4 c 0.04548(13) 0.25 0.30641(14) 0.0048(3) 1 0
loop_
_atom_site_aniso_label
_atom_site_aniso_type_symbol
_atom_site_aniso_U_11
_atom_site_aniso_U_22
_atom_site_aniso_U_33
_atom_site_aniso_U_12
_atom_site_aniso_U_13
_atom_site_aniso_U_23
Sc1 Sc0+ 0.0046(4) 0.0055(4) 0.0043(4) 0. -0.0009(3) 0.
Sc2 Sc0+ 0.0059(5) 0.0049(4) 0.0051(4) 0. -0.0001(3) 0.
Sc3 Sc0+ 0.0041(4) 0.0038(4) 0.0083(4) 0. -0.0001(3) 0.
Ru1 Ru0+ 0.00414(19) 0.00464(17) 0.00392(16) 0. -0.00019(15) 0.
Si1 Si0+ 0.0053(7) 0.0045(5) 0.0062(6) 0. -0.0003(5) 0.
Si2 Si0+ 0.0046(7) 0.0040(5) 0.0058(6) 0. 0.0004(5) 0.
Si3 Si0+ 0.0040(6) 0.0037(6) 0.0067(6) 0. 0.0003(5) 0.
#End of TTdata_421254-ICSD