
#(C) 2017 by FIZ Karlsruhe - Leibniz Institute for Information Infrastructure.  All rights reserved.
data_421663-ICSD
_database_code_ICSD 421663
_audit_creation_date 2011-08-01
_chemical_name_systematic 'Ruthenium zinc stannide (2/3/2)'
_chemical_formula_structural 'Ru2 Zn3 Sn2'
_chemical_formula_sum 'Ru2 Sn2 Zn3'
_exptl_crystal_density_diffrn 8.99
_cell_measurement_temperature 293.
_publ_section_title

;
Planar symmetry incompatibility in Ru-Sn-Zn pseudo-decagonal approximants
composed of novel pentagonal antiprisms
;
loop_
_citation_id
_citation_journal_full
_citation_year
_citation_journal_volume
_citation_page_first
_citation_page_last
_citation_journal_id_ASTM
primary 'Inorganic Chemistry' 2011 50 827 835 INOCAJ
loop_
_publ_author_name
'Xiong Dingbang'
'Okamoto, N.L.'
'Inui, H.'
_cell_length_a 8.2219(16)
_cell_length_b 4.1925(8)
_cell_length_c 13.625(3)
_cell_angle_alpha 90.
_cell_angle_beta 90.
_cell_angle_gamma 90.
_cell_volume 469.66
_cell_formula_units_Z 4
_symmetry_space_group_name_H-M 'P n m a'
_symmetry_Int_Tables_number 62
_refine_ls_R_factor_all 0.0369
loop_
_symmetry_equiv_pos_site_id
_symmetry_equiv_pos_as_xyz
1 'x+1/2, y, -z+1/2'
2 'x, -y+1/2, z'
3 '-x+1/2, y+1/2, z+1/2'
4 '-x, -y, -z'
5 '-x+1/2, -y, z+1/2'
6 '-x, y+1/2, -z'
7 'x+1/2, -y+1/2, -z+1/2'
8 'x, y, z'
loop_
_atom_type_symbol
_atom_type_oxidation_number
Sn0+ 0
Ru0+ 0
Zn0+ 0
loop_
_atom_site_label
_atom_site_type_symbol
_atom_site_symmetry_multiplicity
_atom_site_Wyckoff_symbol
_atom_site_fract_x
_atom_site_fract_y
_atom_site_fract_z
_atom_site_B_iso_or_equiv
_atom_site_occupancy
_atom_site_attached_hydrogens
Sn1 Sn0+ 4 c 0.15309(6) 0.25 0.69623(4) 0.0082(2) 1 0
Sn2 Sn0+ 4 c 0.65020(6) 0.25 0.47543(4) 0.0077(2) 1 0
Ru1 Ru0+ 4 c 0.45766(8) 0.25 0.64112(4) 0.0075(2) 1 0
Ru2 Ru0+ 4 c 0.84783(7) 0.25 0.63111(5) 0.0065(2) 1 0
Zn1 Zn0+ 4 c 0.03450(14) 0.25 0.45847(8) 0.0151(3) 1 0
Zn2 Zn0+ 4 c 0.34237(11) 0.25 0.37046(8) 0.0102(3) 1 0
Zn3 Zn0+ 4 c 0.58993(11) 0.25 0.24434(6) 0.0103(3) 1 0
loop_
_atom_site_aniso_label
_atom_site_aniso_type_symbol
_atom_site_aniso_U_11
_atom_site_aniso_U_22
_atom_site_aniso_U_33
_atom_site_aniso_U_12
_atom_site_aniso_U_13
_atom_site_aniso_U_23
Sn1 Sn0+ 0.0065(3) 0.0108(3) 0.0072(3) 0. 0.00001(15) 0.
Sn2 Sn0+ 0.0087(3) 0.0089(3) 0.0056(3) 0. -0.00140(14) 0.
Ru1 Ru0+ 0.0074(4) 0.0088(3) 0.0061(3) 0. -0.00018(18) 0.
Ru2 Ru0+ 0.0066(4) 0.0072(4) 0.0057(3) 0. -0.00023(17) 0.
Zn1 Zn0+ 0.0225(6) 0.0088(4) 0.0138(5) 0. 0.0091(4) 0.
Zn2 Zn0+ 0.0086(5) 0.0083(5) 0.0137(5) 0. -0.0009(3) 0.
Zn3 Zn0+ 0.0135(6) 0.0082(4) 0.0093(4) 0. 0.0037(3) 0.
#End of TTdata_421663-ICSD