
#(C) 2017 by FIZ Karlsruhe - Leibniz Institute for Information Infrastructure.  All rights reserved.
data_42173-ICSD
_database_code_ICSD 42173
_audit_creation_date 2000-12-16
_audit_update_record 2003-10-01
_chemical_name_systematic 'Cadmium iodide'
_chemical_formula_structural 'Cd I2'
_chemical_formula_sum 'Cd1 I2'
_chemical_name_structure_type CdI2(hR12)
_exptl_crystal_density_diffrn 5.71
_publ_section_title 'Crystal structures of four new polytypes of cadmium iodide'
loop_
_citation_id
_citation_journal_full
_citation_year
_citation_journal_volume
_citation_page_first
_citation_page_last
_citation_journal_id_ASTM
primary 'Acta Crystallographica B (24,1968-38,1982)' 1970 26 1785 1790 ACBCAR
loop_
_publ_author_name
'Jain, R.K.'
'Chadha, G.K.'
'Trigunayat, G.C.'
_cell_length_a 4.24
_cell_length_b 4.24
_cell_length_c 82.02
_cell_angle_alpha 90.
_cell_angle_beta 90.
_cell_angle_gamma 120.
_cell_volume 1276.97
_cell_formula_units_Z 12
_symmetry_space_group_name_H-M 'R 3 m H'
_symmetry_Int_Tables_number 160
loop_
_symmetry_equiv_pos_site_id
_symmetry_equiv_pos_as_xyz
1 '-x+y, y, z'
2 'x, x-y, z'
3 '-y, -x, z'
4 '-x+y, -x, z'
5 '-y, x-y, z'
6 'x, y, z'
7 '-x+y+2/3, y+1/3, z+1/3'
8 'x+2/3, x-y+1/3, z+1/3'
9 '-y+2/3, -x+1/3, z+1/3'
10 '-x+y+2/3, -x+1/3, z+1/3'
11 '-y+2/3, x-y+1/3, z+1/3'
12 'x+2/3, y+1/3, z+1/3'
13 '-x+y+1/3, y+2/3, z+2/3'
14 'x+1/3, x-y+2/3, z+2/3'
15 '-y+1/3, -x+2/3, z+2/3'
16 '-x+y+1/3, -x+2/3, z+2/3'
17 '-y+1/3, x-y+2/3, z+2/3'
18 'x+1/3, y+2/3, z+2/3'
loop_
_atom_type_symbol
_atom_type_oxidation_number
Cd2+ 2
I1- -1
loop_
_atom_site_label
_atom_site_type_symbol
_atom_site_symmetry_multiplicity
_atom_site_Wyckoff_symbol
_atom_site_fract_x
_atom_site_fract_y
_atom_site_fract_z
_atom_site_B_iso_or_equiv
_atom_site_occupancy
_atom_site_attached_hydrogens
Cd1 Cd2+ 3 a 0 0 0.1042 . 1. 0
Cd2 Cd2+ 3 a 0 0 0.3542 . 1. 0
Cd3 Cd2+ 3 a 0 0 0.5208 . 1. 0
Cd4 Cd2+ 3 a 0 0 0.9375 . 1. 0
I1 I1- 3 a 0 0 0 . 1. 0
I2 I1- 3 a 0 0 0.1667 . 1. 0
I3 I1- 3 a 0 0 0.25 . 1. 0
I4 I1- 3 a 0 0 0.4167 . 1. 0
I5 I1- 3 a 0 0 0.625 . 1. 0
I6 I1- 3 a 0 0 0.7083 . 1. 0
I7 I1- 3 a 0 0 0.7917 . 1. 0
I8 I1- 3 a 0 0 0.875 . 1. 0
#End of TTdata_42173-ICSD