
data_422272-ICSD
_database_code_ICSD 422272
_audit_creation_date 2011-08-01
_audit_update_record 2013-08-01
_chemical_name_systematic 'Dipotassium barium cadmium diantimonide'
_chemical_formula_structural 'K2 Ba Cd Sb2'
_chemical_formula_sum 'Ba1 Cd1 K2 Sb2'
_chemical_name_structure_type K2BaCdSb2
_exptl_crystal_density_diffrn 4.52
_cell_measurement_temperature 170.
_cell_length_a 5.0366(8)
_cell_length_b 9.8183(15)
_cell_length_c 8.4924(13)
_cell_angle_alpha 90.
_cell_angle_beta 90.
_cell_angle_gamma 90.
_cell_volume 419.96
_cell_formula_units_Z 2
_symmetry_space_group_name_H-M 'P m c 21'
_symmetry_Int_Tables_number 26
_refine_ls_R_factor_all 0.0214
loop_
_symmetry_equiv_pos_site_id
_symmetry_equiv_pos_as_xyz
1 'x, -y, z+1/2'
2 '-x, -y, z+1/2'
3 '-x, y, z'
4 'x, y, z'
loop_
_atom_type_symbol
_atom_type_oxidation_number
Ba2+ 2
Cd2+ 2
Sb3- -3
K1+ 1
loop_
_atom_site_label
_atom_site_type_symbol
_atom_site_symmetry_multiplicity
_atom_site_Wyckoff_symbol
_atom_site_fract_x
_atom_site_fract_y
_atom_site_fract_z
_atom_site_B_iso_or_equiv
_atom_site_occupancy
_atom_site_attached_hydrogens
Ba1 Ba2+ 2 a 0. 0.04958(5) 0.00000(6) 0.01256(12) 1 0
Cd1 Cd2+ 2 b 0.5 0.17695(7) 0.65414(8) 0.01541(15) 1 0
Sb1 Sb3- 2 b 0.5 0.11321(6) 0.28881(6) 0.01225(13) 1 0
Sb2 Sb3- 2 a 0. 0.68139(5) 0.23815(7) 0.01337(13) 1 0
K1 K1+ 2 b 0.5 0.4233(2) 0.0206(3) 0.0242(5) 1 0
K2 K1+ 2 a 0. 0.3405(2) 0.3439(2) 0.0182(4) 1 0
loop_
_atom_site_aniso_label
_atom_site_aniso_type_symbol
_atom_site_aniso_U_11
_atom_site_aniso_U_22
_atom_site_aniso_U_33
_atom_site_aniso_U_12
_atom_site_aniso_U_13
_atom_site_aniso_U_23
Ba1 Ba2+ 0.0121(2) 0.0148(2) 0.0107(2) 0. 0. -0.00094(18)
Cd1 Cd2+ 0.0134(3) 0.0152(3) 0.0176(3) 0. 0. -0.0010(2)
Sb1 Sb3- 0.0112(2) 0.0141(3) 0.0115(3) 0. 0. 0.0004(2)
Sb2 Sb3- 0.0128(3) 0.0133(3) 0.0140(3) 0. 0. 0.0003(2)
K1 K1+ 0.0214(9) 0.0296(12) 0.0216(12) 0. 0. 0.0019(10)
K2 K1+ 0.0199(10) 0.0140(10) 0.0208(10) 0. 0. 0.0004(8)
