
data_422403-ICSD
_database_code_ICSD 422403
_audit_creation_date 2011-08-01
_chemical_name_systematic 'Scandium iridium phosphide (1/1/1)'
_chemical_formula_structural 'Sc Ir P'
_chemical_formula_sum 'Ir1 P1 Sc1'
_chemical_name_structure_type ZrNiAl-Fe2P
_exptl_crystal_density_diffrn 9.8
_cell_measurement_temperature 293.
_cell_length_a 6.372(3)
_cell_length_b 6.372(3)
_cell_length_c 3.892(2)
_cell_angle_alpha 90.
_cell_angle_beta 90.
_cell_angle_gamma 120.
_cell_volume 136.85
_cell_formula_units_Z 3
_symmetry_space_group_name_H-M 'P -6 2 m'
_symmetry_Int_Tables_number 189
_refine_ls_R_factor_all 0.0135
loop_
_symmetry_equiv_pos_site_id
_symmetry_equiv_pos_as_xyz
1 '-x, -x+y, -z'
2 'x-y, -y, -z'
3 'y, x, -z'
4 '-x, -x+y, z'
5 'x-y, -y, z'
6 'y, x, z'
7 '-x+y, -x, -z'
8 '-y, x-y, -z'
9 'x, y, -z'
10 '-x+y, -x, z'
11 '-y, x-y, z'
12 'x, y, z'
loop_
_atom_type_symbol
_atom_type_oxidation_number
Sc0+ 0
Ir0+ 0
P0+ 0
loop_
_atom_site_label
_atom_site_type_symbol
_atom_site_symmetry_multiplicity
_atom_site_Wyckoff_symbol
_atom_site_fract_x
_atom_site_fract_y
_atom_site_fract_z
_atom_site_B_iso_or_equiv
_atom_site_occupancy
_atom_site_attached_hydrogens
Sc1 Sc0+ 3 g 0.5773(2) 0. 0.5 0.0059(3) 1 0
Ir1 Ir0+ 3 f 0.24809(5) 0. 0. 0.00557(9) 1 0
P1 P0+ 2 c 0.6667 0.3333 0. 0.0052(4) 1 0
P2 P0+ 1 b 0. 0. 0.5 0.0088(6) 1 0
loop_
_atom_site_aniso_label
_atom_site_aniso_type_symbol
_atom_site_aniso_U_11
_atom_site_aniso_U_22
_atom_site_aniso_U_33
_atom_site_aniso_U_12
_atom_site_aniso_U_13
_atom_site_aniso_U_23
Sc1 Sc0+ 0.0065(5) 0.0052(6) 0.0056(6) 0.0026(3) 0. 0.
Ir1 Ir0+ 0.00330(10) 0.00375(14) 0.00980(13) 0.00187(7) 0. 0.
P1 P0+ 0.0046(6) 0.0046(6) 0.0066(11) 0.0023(3) 0. 0.
P2 P0+ 0.0092(9) 0.0092(9) 0.0080(16) 0.0046(5) 0. 0.
