
#(C) 2017 by FIZ Karlsruhe - Leibniz Institute for Information Infrastructure.  All rights reserved.
data_423042-ICSD
_database_code_ICSD 423042
_audit_creation_date 2012-02-01
_chemical_name_systematic 'Strontium germanium bis(phosphate(V)) - beta'
_chemical_formula_structural 'Sr Ge (P O4)2'
_chemical_formula_sum 'Ge1 O8 P2 Sr1'
_chemical_name_structure_type NaV(SO4)2
_exptl_crystal_density_diffrn 3.97
_cell_measurement_temperature 473.
_publ_section_title

;
M(II) Ge (P O4)2 (M = Ca, Sr, Ba): crystal structure, phase transition and
thermal expansion
;
loop_
_citation_id
_citation_journal_full
_citation_year
_citation_journal_volume
_citation_page_first
_citation_page_last
_citation_journal_id_ASTM
primary 'Journal of Solid State Chemistry' 2011 184 2629 2634 JSSCBI
loop_
_publ_author_name
'Popa, K.'
'Wallez, G.'
'Bregiroux, D.'
'Loiseau, P.'
_cell_length_a 7.8695(5)
_cell_length_b 5.0724(4)
_cell_length_c 7.3566(5)
_cell_angle_alpha 90.
_cell_angle_beta 94.064(4)
_cell_angle_gamma 90.
_cell_volume 292.92
_cell_formula_units_Z 2
_symmetry_space_group_name_H-M 'C 1 2/m 1'
_symmetry_Int_Tables_number 12
_refine_ls_R_factor_all 0.037
loop_
_symmetry_equiv_pos_site_id
_symmetry_equiv_pos_as_xyz
1 '-x, y, -z'
2 '-x, -y, -z'
3 'x, -y, z'
4 'x, y, z'
5 '-x+1/2, y+1/2, -z'
6 '-x+1/2, -y+1/2, -z'
7 'x+1/2, -y+1/2, z'
8 'x+1/2, y+1/2, z'
loop_
_atom_type_symbol
_atom_type_oxidation_number
Ge4+ 4
Sr2+ 2
P5+ 5
O2- -2
loop_
_atom_site_label
_atom_site_type_symbol
_atom_site_symmetry_multiplicity
_atom_site_Wyckoff_symbol
_atom_site_fract_x
_atom_site_fract_y
_atom_site_fract_z
_atom_site_B_iso_or_equiv
_atom_site_occupancy
_atom_site_attached_hydrogens
Ge1 Ge4+ 2 a 0. 0. 0. 0.0089(8) 1. 0
Sr1 Sr2+ 2 c 0. 0. 0.5 0.0183(8) 1. 0
P1 P5+ 4 i 0.3665(2) 0. 0.2060(2) 0.0091(4) 1. 0
O1 O2- 4 i 0.2320(5) 0. 0.0467(5) 0.0129(12) 1. 0
O2 O2- 4 i 0.3095(5) 0. 0.3977(5) 0.0140(12) 1. 0
O3 O2- 8 j 0.4812(4) 0.2471(5) 0.1868(3) 0.0118(8) 1. 0
loop_
_atom_site_aniso_label
_atom_site_aniso_type_symbol
_atom_site_aniso_U_11
_atom_site_aniso_U_22
_atom_site_aniso_U_33
_atom_site_aniso_U_12
_atom_site_aniso_U_13
_atom_site_aniso_U_23
Ge1 Ge4+ 0.0092(8) 0.0058(8) 0.0118(8) 0. 0.0015(6) 0.
Sr1 Sr2+ 0.0167(7) 0.0286(9) 0.0096(7) 0. 0.0085(5) 0.
#End of TTdata_423042-ICSD