
#(C) 2017 by FIZ Karlsruhe - Leibniz Institute for Information Infrastructure.  All rights reserved.
data_423103-ICSD
_database_code_ICSD 423103
_audit_creation_date 2012-02-01
_chemical_name_systematic 'zirconium copper germanide arsenide (1/1/1/1)'
_chemical_formula_structural 'Zr Cu Ge As'
_chemical_formula_sum 'As1 Cu1 Ge1 Zr1'
_chemical_name_structure_type ZrCuSiAs-CuHfSi2
_exptl_crystal_density_diffrn 7.6
_cell_measurement_temperature 295.
_publ_section_title 'Quaternary germanide arsenides Zr Cu Ge As and Hf Cu Ge As'
loop_
_citation_id
_citation_journal_full
_citation_year
_citation_journal_volume
_citation_page_first
_citation_page_last
_citation_journal_id_ASTM
primary 'Zeitschrift fuer Anorganische und Allgemeine Chemie (1950) (DE)' 2011
637 2007 2012 ZAACAB
loop_
_publ_author_name
'Baergen, A.M.'
'Blanchard, P.E.R.'
'Stoyko, S.S.'
'Mar, A.'
_cell_length_a 3.7155(2)
_cell_length_b 3.7155(2)
_cell_length_c 9.5644(6)
_cell_angle_alpha 90.
_cell_angle_beta 90.
_cell_angle_gamma 90.
_cell_volume 132.04
_cell_formula_units_Z 2
_symmetry_space_group_name_H-M 'P 4/n m m Z'
_symmetry_Int_Tables_number 129
_refine_ls_R_factor_all 0.0139
loop_
_symmetry_equiv_pos_site_id
_symmetry_equiv_pos_as_xyz
1 'y+1/2, x+1/2, -z'
2 '-y, x+1/2, -z'
3 'y+1/2, -x, -z'
4 '-y, -x, -z'
5 'x+1/2, y+1/2, -z'
6 '-x, y+1/2, -z'
7 'x+1/2, -y, -z'
8 '-x, -y, -z'
9 '-y+1/2, -x+1/2, z'
10 'y, -x+1/2, z'
11 '-y+1/2, x, z'
12 'y, x, z'
13 '-x+1/2, -y+1/2, z'
14 'x, -y+1/2, z'
15 '-x+1/2, y, z'
16 'x, y, z'
loop_
_atom_type_symbol
_atom_type_oxidation_number
Zr0+ 0
Cu0+ 0
Ge0+ 0
As0+ 0
loop_
_atom_site_label
_atom_site_type_symbol
_atom_site_symmetry_multiplicity
_atom_site_Wyckoff_symbol
_atom_site_fract_x
_atom_site_fract_y
_atom_site_fract_z
_atom_site_B_iso_or_equiv
_atom_site_occupancy
_atom_site_attached_hydrogens
Zr1 Zr0+ 2 c 0.25 0.25 0.22727(6) 0.00551(17) 1 0
Cu1 Cu0+ 2 b 0.75 0.25 0.5 0.0118(2) 1 0
Ge1 Ge0+ 2 a 0.75 0.25 0. 0.00658(18) 1 0
As1 As0+ 2 c 0.25 0.25 0.67574(7) 0.00683(18) 1 0
loop_
_atom_site_aniso_label
_atom_site_aniso_type_symbol
_atom_site_aniso_U_11
_atom_site_aniso_U_22
_atom_site_aniso_U_33
_atom_site_aniso_U_12
_atom_site_aniso_U_13
_atom_site_aniso_U_23
Zr1 Zr0+ 0.0058(2) 0.0058(2) 0.0049(3) 0. 0. 0.
Cu1 Cu0+ 0.0123(3) 0.0123(3) 0.0106(4) 0. 0. 0.
Ge1 Ge0+ 0.0071(2) 0.0071(2) 0.0055(3) 0. 0. 0.
As1 As0+ 0.0063(2) 0.0063(2) 0.0078(3) 0. 0. 0.
#End of TTdata_423103-ICSD