
#(C) 2017 by FIZ Karlsruhe - Leibniz Institute for Information Infrastructure.  All rights reserved.
data_423251-ICSD
_database_code_ICSD 423251
_audit_creation_date 2012-02-01
_chemical_name_systematic 'Calcium cadmium copper (5/1/2)'
_chemical_formula_structural 'Ca5 Cd Cu2'
_chemical_formula_sum 'Ca5 Cd1 Cu2'
_chemical_name_structure_type Cr5B3
_exptl_crystal_density_diffrn 3.07
_cell_measurement_temperature 293.
_publ_section_title

;
In search of chemical frustration in the Ca-Cu-Cd system: chemical pressure
relief in the crystal structures of Ca5 Cu2 Cd and Ca2 Cu2 Cd9
;
loop_
_citation_id
_citation_journal_full
_citation_year
_citation_journal_volume
_citation_page_first
_citation_page_last
_citation_journal_id_ASTM
primary 'Zeitschrift fuer Anorganische und Allgemeine Chemie (1950) (DE)' 2011
637 1961 1974 ZAACAB
loop_
_publ_author_name
'Harris, N.A.'
'Hadler, A.B.'
'Fredrickson, D.C.'
_cell_length_a 8.0132(2)
_cell_length_b 8.0132(2)
_cell_length_c 14.8085(7)
_cell_angle_alpha 90
_cell_angle_beta 90
_cell_angle_gamma 90
_cell_volume 950.87
_cell_formula_units_Z 4
_symmetry_space_group_name_H-M 'I 4/m c m'
_symmetry_Int_Tables_number 140
_refine_ls_R_factor_all 0.0199
loop_
_symmetry_equiv_pos_site_id
_symmetry_equiv_pos_as_xyz
1 'y, x, -z+1/2'
2 '-y, -x, -z+1/2'
3 '-y, x, -z'
4 'y, -x, -z'
5 'x, -y, -z+1/2'
6 '-x, y, -z+1/2'
7 'x, y, -z'
8 '-x, -y, -z'
9 '-y, -x, z+1/2'
10 'y, x, z+1/2'
11 'y, -x, z'
12 '-y, x, z'
13 '-x, y, z+1/2'
14 'x, -y, z+1/2'
15 '-x, -y, z'
16 'x, y, z'
17 'y+1/2, x+1/2, -z'
18 '-y+1/2, -x+1/2, -z'
19 '-y+1/2, x+1/2, -z+1/2'
20 'y+1/2, -x+1/2, -z+1/2'
21 'x+1/2, -y+1/2, -z'
22 '-x+1/2, y+1/2, -z'
23 'x+1/2, y+1/2, -z+1/2'
24 '-x+1/2, -y+1/2, -z+1/2'
25 '-y+1/2, -x+1/2, z'
26 'y+1/2, x+1/2, z'
27 'y+1/2, -x+1/2, z+1/2'
28 '-y+1/2, x+1/2, z+1/2'
29 '-x+1/2, y+1/2, z'
30 'x+1/2, -y+1/2, z'
31 '-x+1/2, -y+1/2, z+1/2'
32 'x+1/2, y+1/2, z+1/2'
loop_
_atom_type_symbol
_atom_type_oxidation_number
Ca0+ 0
Cu0+ 0
Cd0+ 0
loop_
_atom_site_label
_atom_site_type_symbol
_atom_site_symmetry_multiplicity
_atom_site_Wyckoff_symbol
_atom_site_fract_x
_atom_site_fract_y
_atom_site_fract_z
_atom_site_B_iso_or_equiv
_atom_site_occupancy
_atom_site_attached_hydrogens
Ca1 Ca0+ 16 l 0.166257 0.666257 0.142141 0.02232(13) 1 0
Ca2 Ca0+ 4 c 0.00000(6) 0.00000(6) 0 0.02173(14) 1 0
Cu1 Cu0+ 8 h 0.11605(7) 0.38395(7) 0.00000(5) 0.01783(18) 1 0
Cd1 Cd0+ 4 a 0 0 0.25 0.0227(3) 1 0
loop_
_atom_site_aniso_label
_atom_site_aniso_type_symbol
_atom_site_aniso_U_11
_atom_site_aniso_U_22
_atom_site_aniso_U_33
_atom_site_aniso_U_12
_atom_site_aniso_U_13
_atom_site_aniso_U_23
Ca1 Ca0+ 0.02099(18) 0.02099(18) 0.0250(3) 0.0022 -0.002842 -0.002842
Ca2 Ca0+ 0.0177(2) 0.0177(2) 0.0298(3) 0.0000(2) 0 0
Cu1 Cu0+ 0.0163(2) 0.0163(2) 0.0210(4) -0.0009(3) 0.0000(2) 0.0000(2)
Cd1 Cd0+ 0.0193(4) 0.0193(4) 0.0296(8) 0 0 0
#End of TTdata_423251-ICSD