
#(C) 2017 by FIZ Karlsruhe - Leibniz Institute for Information Infrastructure.  All rights reserved.
data_423992-ICSD
_database_code_ICSD 423992
_audit_creation_date 2012-08-01
_chemical_name_systematic 'Dirubidium dioxodisulfidomolybdate'
_chemical_formula_structural 'Rb2 Mo O2 S2'
_chemical_formula_sum 'Mo1 O2 Rb2 S2'
_chemical_name_structure_type Cs2MoO2S2
_exptl_crystal_density_diffrn 3.4
_cell_measurement_temperature 293.
_publ_section_title

;
Gemischte Alkalimetall-Thiooxomolybdate A2 [Mo O(x) S(4-x)] (x = 1, 2, 3; A =
K, Rb, Cs, NH4). Synthesen, Kristallstrukturen und Eigenschaften
;
loop_
_citation_id
_citation_journal_full
_citation_year
_citation_journal_volume
_citation_page_first
_citation_page_last
_citation_journal_id_ASTM
primary 'Zeitschrift fuer Naturforschung, B: Chemical Sciences' 2012 67 127 148
ZNBSEN
loop_
_publ_author_name
'Lehner, A.J.'
'Kraut, K.'
'Roehr, C.'
_cell_length_a 11.4432(11)
_cell_length_b 7.3260(4)
_cell_length_c 9.7899(10)
_cell_angle_alpha 90.
_cell_angle_beta 120.324(7)
_cell_angle_gamma 90.
_cell_volume 708.43
_cell_formula_units_Z 4
_symmetry_space_group_name_H-M 'C 1 2/c 1'
_symmetry_Int_Tables_number 15
_refine_ls_R_factor_all 0.0274
loop_
_symmetry_equiv_pos_site_id
_symmetry_equiv_pos_as_xyz
1 'x, -y, z+1/2'
2 '-x, -y, -z'
3 '-x, y, -z+1/2'
4 'x, y, z'
5 'x+1/2, -y+1/2, z+1/2'
6 '-x+1/2, -y+1/2, -z'
7 '-x+1/2, y+1/2, -z+1/2'
8 'x+1/2, y+1/2, z'
loop_
_atom_type_symbol
_atom_type_oxidation_number
Rb1+ 1
Mo6+ 6
S2- -2
O2- -2
loop_
_atom_site_label
_atom_site_type_symbol
_atom_site_symmetry_multiplicity
_atom_site_Wyckoff_symbol
_atom_site_fract_x
_atom_site_fract_y
_atom_site_fract_z
_atom_site_B_iso_or_equiv
_atom_site_occupancy
_atom_site_attached_hydrogens
Rb1 Rb1+ 8 f 0.29531(4) 0.05604(5) 0.16662(5) 0.03575(13) 1 0
Mo1 Mo6+ 4 e 0. 0.07864(5) 0.25 0.02581(12) 1 0
S1 S2- 8 f 0.01598(11) 0.25562(13) 0.44153(12) 0.0348(2) 1 0
O1 O2- 8 f 0.3544(3) 0.4445(4) 0.1757(3) 0.0352(6) 1 0
loop_
_atom_site_aniso_label
_atom_site_aniso_type_symbol
_atom_site_aniso_U_11
_atom_site_aniso_U_22
_atom_site_aniso_U_33
_atom_site_aniso_U_12
_atom_site_aniso_U_13
_atom_site_aniso_U_23
Rb1 Rb1+ 0.0339(2) 0.0330(2) 0.0352(2) 0.00326(13) 0.01367(16) 0.00149(14)
Mo1 Mo6+ 0.0254(2) 0.0222(2) 0.0252(2) 0. 0.00942(16) 0.
S1 S2- 0.0403(5) 0.0309(4) 0.0297(4) -0.0001(3) 0.0151(4) -0.0035(3)
O1 O2- 0.0334(13) 0.0381(15) 0.0309(14) -0.0088(10) 0.0139(11) -0.0041(10)
#End of TTdata_423992-ICSD