
data_423937-ICSD
_database_code_ICSD 423937
_audit_creation_date 2013-02-01
_chemical_name_systematic 'Gallium arsenate'
_chemical_formula_structural 'Ga (As O4)'
_chemical_formula_sum 'As1 Ga1 O4'
_exptl_crystal_density_diffrn 3.9
_cell_length_a 7.0592(11)
_cell_length_b 7.0893(2)
_cell_length_c 7.09772(18)
_cell_angle_alpha 90.
_cell_angle_beta 90.
_cell_angle_gamma 90.
_cell_volume 355.2
_cell_formula_units_Z 4
_symmetry_space_group_name_H-M 'C 2 2 21'
_symmetry_Int_Tables_number 20
_refine_ls_R_factor_all 0.241
loop_
_symmetry_equiv_pos_site_id
_symmetry_equiv_pos_as_xyz
1 '-x, y, -z+1/2'
2 '-x, -y, z+1/2'
3 'x, -y, -z'
4 'x, y, z'
5 '-x+1/2, y+1/2, -z+1/2'
6 '-x+1/2, -y+1/2, z+1/2'
7 'x+1/2, -y+1/2, -z'
8 'x+1/2, y+1/2, z'
loop_
_atom_type_symbol
_atom_type_oxidation_number
As5+ 5
Ga3+ 3
O2- -2
loop_
_atom_site_label
_atom_site_type_symbol
_atom_site_symmetry_multiplicity
_atom_site_Wyckoff_symbol
_atom_site_fract_x
_atom_site_fract_y
_atom_site_fract_z
_atom_site_B_iso_or_equiv
_atom_site_occupancy
_atom_site_attached_hydrogens
As1 As5+ 4 a 0.3232(12) 0. 0. . 1. 0
Ga1 Ga3+ 4 b 0. 0.1787(12) 0.25 . 1. 0
O1 O2- 8 c 0.1780(6) 0.0030(7) 0.2087(8) . 1. 0
O2 O2- 8 c 0.4573(6) 0.2126(5) 0.9963(8) . 1. 0
