
data_424098-ICSD
_database_code_ICSD 424098
_audit_creation_date 2012-08-01
_chemical_name_systematic 'Barium stannide (3/2)'
_chemical_formula_structural 'Ba3 Sn2'
_chemical_formula_sum 'Ba3 Sn2'
_exptl_crystal_density_diffrn 5.41
_cell_measurement_temperature 293.
_cell_length_a 6.6854(2)
_cell_length_b 6.6854(2)
_cell_length_c 17.8422(12)
_cell_angle_alpha 90.
_cell_angle_beta 90.
_cell_angle_gamma 90.
_cell_volume 797.45
_cell_formula_units_Z 4
_symmetry_space_group_name_H-M 'P 43 21 2'
_symmetry_Int_Tables_number 96
_refine_ls_R_factor_all 0.0204
loop_
_symmetry_equiv_pos_site_id
_symmetry_equiv_pos_as_xyz
1 'x+1/2, -y+1/2, -z+1/4'
2 '-x+1/2, y+1/2, -z+3/4'
3 '-y, -x, -z+1/2'
4 'y, x, -z'
5 'y+1/2, -x+1/2, z+1/4'
6 '-y+1/2, x+1/2, z+3/4'
7 '-x, -y, z+1/2'
8 'x, y, z'
loop_
_atom_type_symbol
_atom_type_oxidation_number
Ba0+ 0
Sn0+ 0
Ba0+ 0
loop_
_atom_site_label
_atom_site_type_symbol
_atom_site_symmetry_multiplicity
_atom_site_Wyckoff_symbol
_atom_site_fract_x
_atom_site_fract_y
_atom_site_fract_z
_atom_site_B_iso_or_equiv
_atom_site_occupancy
_atom_site_attached_hydrogens
Ba1 Ba0+ 8 b 0.84067(6) 0.58507(5) 0.11306(2) 0.02400(10) 1 0
Sn1 Sn0+ 8 b 0.83096(7) 0.08756(5) 0.04712(2) 0.01980(10) 1 0
Ba2 Ba0+ 4 a 0.32832(5) 0.32832(5) 0. 0.02224(11) 1 0
loop_
_atom_site_aniso_label
_atom_site_aniso_type_symbol
_atom_site_aniso_U_11
_atom_site_aniso_U_22
_atom_site_aniso_U_33
_atom_site_aniso_U_12
_atom_site_aniso_U_13
_atom_site_aniso_U_23
Ba1 Ba0+ 0.02633(18) 0.01852(16) 0.02714(19) 0.00104(15) 0.00451(17) 0.00246(14)
Sn1 Sn0+ 0.02257(18) 0.01892(18) 0.01791(18) 0.00041(18) 0.00178(17)
-0.00240(15)
Ba2 Ba0+ 0.02356(15) 0.02356(15) 0.0196(2) -0.0017(2) -0.00107(15) 0.00107(15)
