
data_42445-ICSD
_database_code_ICSD 42445
_audit_creation_date 2000-07-15
_audit_update_record 2017-08-01
_chemical_name_systematic 'Vanadium arsenide (1/1)'
_chemical_formula_structural 'V As'
_chemical_formula_sum 'As1 V1'
_chemical_name_structure_type CoAs
_exptl_crystal_density_diffrn 6.76
_cell_measurement_temperature 293.
_cell_length_a 5.8500(8)
_cell_length_b 6.2923(10)
_cell_length_c 3.3618(4)
_cell_angle_alpha 90.
_cell_angle_beta 90.
_cell_angle_gamma 90.
_cell_volume 123.75
_cell_formula_units_Z 4
_symmetry_space_group_name_H-M 'P n a 21'
_symmetry_Int_Tables_number 33
_refine_ls_R_factor_all 0.095
loop_
_symmetry_equiv_pos_site_id
_symmetry_equiv_pos_as_xyz
1 'x+1/2, -y+1/2, z'
2 '-x+1/2, y+1/2, z+1/2'
3 '-x, -y, z+1/2'
4 'x, y, z'
loop_
_atom_type_symbol
_atom_type_oxidation_number
V3+ 3
As3- -3
loop_
_atom_site_label
_atom_site_type_symbol
_atom_site_symmetry_multiplicity
_atom_site_Wyckoff_symbol
_atom_site_fract_x
_atom_site_fract_y
_atom_site_fract_z
_atom_site_B_iso_or_equiv
_atom_site_occupancy
_atom_site_attached_hydrogens
V1 V3+ 4 a 0.0054(10) 0.1890(4) 0.25 . 1. 0
As1 As3- 4 a 0.1969(6) 0.5734(3) 0.2673(17) . 1. 0
loop_
_atom_site_aniso_label
_atom_site_aniso_type_symbol
_atom_site_aniso_beta_11
_atom_site_aniso_beta_22
_atom_site_aniso_beta_33
_atom_site_aniso_beta_12
_atom_site_aniso_beta_13
_atom_site_aniso_beta_23
V1 V3+ 0.0032(20) 0.0017(3) 0.0083(13) 0 0 0
As1 As3- 0.0057(14) 0.0020(3) 0.0070(8) 0 0 0
