
#(C) 2017 by FIZ Karlsruhe - Leibniz Institute for Information Infrastructure.  All rights reserved.
data_42455-ICSD
_database_code_ICSD 42455
_audit_creation_date 2000-07-15
_chemical_name_systematic 'Calcium germanide (1/1/1)'
_chemical_formula_structural 'Ca2 Ge'
_chemical_formula_sum 'Ca2 Ge1'
_chemical_name_structure_type TiNiSi-MgSrSi
_exptl_crystal_density_diffrn 2.99
_publ_section_title

;
Der Uebergang vom "geordneten" Anti-Pb Cl2-Gitter zum Anti-Pb F Cl-Gitter:
Ternaere Phasen A B X der Erdalkalimetalle mit Elementen der 4. Hauptgruppe
(A=Ca, Sr, Ba; B=Mg; X=Si, Ge, Sn, Pb)
;
loop_
_citation_id
_citation_journal_full
_citation_year
_citation_journal_volume
_citation_page_first
_citation_page_last
_citation_journal_id_ASTM
primary 'Zeitschrift fuer Anorganische und Allgemeine Chemie (1950) (DE)' 1972
391 241 254 ZAACAB
loop_
_publ_author_name
'Eisenmann, B.'
'Schaefer, H.'
'Weiss, A.'
_cell_length_a 7.734
_cell_length_b 4.834
_cell_length_c 9.069
_cell_angle_alpha 90.
_cell_angle_beta 90.
_cell_angle_gamma 90.
_cell_volume 339.06
_cell_formula_units_Z 4
_symmetry_space_group_name_H-M 'P n m a'
_symmetry_Int_Tables_number 62
_refine_ls_R_factor_all 0.113
loop_
_symmetry_equiv_pos_site_id
_symmetry_equiv_pos_as_xyz
1 'x+1/2, y, -z+1/2'
2 'x, -y+1/2, z'
3 '-x+1/2, y+1/2, z+1/2'
4 '-x, -y, -z'
5 '-x+1/2, -y, z+1/2'
6 '-x, y+1/2, -z'
7 'x+1/2, -y+1/2, -z+1/2'
8 'x, y, z'
loop_
_atom_type_symbol
_atom_type_oxidation_number
Ca0+ 0
Ge0+ 0
loop_
_atom_site_label
_atom_site_type_symbol
_atom_site_symmetry_multiplicity
_atom_site_Wyckoff_symbol
_atom_site_fract_x
_atom_site_fract_y
_atom_site_fract_z
_atom_site_B_iso_or_equiv
_atom_site_occupancy
_atom_site_attached_hydrogens
Ca1 Ca0+ 4 c 0.655 0.25 0.074 . 1. 0
Ca2 Ca0+ 4 c 0.522 0.25 0.676 . 1. 0
Ge1 Ge0+ 4 c 0.255 0.25 0.107 . 1. 0
#End of TTdata_42455-ICSD