
#(C) 2017 by FIZ Karlsruhe - Leibniz Institute for Information Infrastructure.  All rights reserved.
data_42551-ICSD
_database_code_ICSD 42551
_audit_creation_date 2000-07-15
_audit_update_record 2011-02-01
_chemical_name_systematic 'Palladium telluride (20/7)'
_chemical_formula_structural 'Pd20 Te7'
_chemical_formula_sum 'Pd20 Te7'
_chemical_name_structure_type Pd20Sb7
_chemical_name_mineral Keithconnite
_exptl_crystal_density_diffrn 11.18
_publ_section_title 'Kristallstruktur von Pd20 Sb7 und Pd20 Te7'
loop_
_citation_id
_citation_journal_full
_citation_year
_citation_journal_volume
_citation_page_first
_citation_page_last
_citation_journal_id_ASTM
primary 'Journal of the Less-Common Metals' 1977 51 35 44 JCOMAH
loop_
_publ_author_name
'Wopersnow, W.'
'Schubert, K.'
_cell_length_a 11.797(1)
_cell_length_b 11.797(1)
_cell_length_c 11.172(2)
_cell_angle_alpha 90.
_cell_angle_beta 90.
_cell_angle_gamma 120.
_cell_volume 1346.49
_cell_formula_units_Z 3
_symmetry_space_group_name_H-M 'R -3 H'
_symmetry_Int_Tables_number 148
loop_
_symmetry_equiv_pos_site_id
_symmetry_equiv_pos_as_xyz
1 'x-y, x, -z'
2 'y, -x+y, -z'
3 '-x, -y, -z'
4 '-x+y, -x, z'
5 '-y, x-y, z'
6 'x, y, z'
7 'x-y+2/3, x+1/3, -z+1/3'
8 'y+2/3, -x+y+1/3, -z+1/3'
9 '-x+2/3, -y+1/3, -z+1/3'
10 '-x+y+2/3, -x+1/3, z+1/3'
11 '-y+2/3, x-y+1/3, z+1/3'
12 'x+2/3, y+1/3, z+1/3'
13 'x-y+1/3, x+2/3, -z+2/3'
14 'y+1/3, -x+y+2/3, -z+2/3'
15 '-x+1/3, -y+2/3, -z+2/3'
16 '-x+y+1/3, -x+2/3, z+2/3'
17 '-y+1/3, x-y+2/3, z+2/3'
18 'x+1/3, y+2/3, z+2/3'
loop_
_atom_type_symbol
_atom_type_oxidation_number
Pd0+ 0.7
Te2- -2
loop_
_atom_site_label
_atom_site_type_symbol
_atom_site_symmetry_multiplicity
_atom_site_Wyckoff_symbol
_atom_site_fract_x
_atom_site_fract_y
_atom_site_fract_z
_atom_site_B_iso_or_equiv
_atom_site_occupancy
_atom_site_attached_hydrogens
Pd1 Pd0+ 6 c 0 0 0.3774 . 1. 0
Pd2 Pd0+ 18 f 0.1505 0.9639 0.1881 . 1. 0
Pd3 Pd0+ 18 f 0.2041 0.9517 0.9397 . 1. 0
Pd4 Pd0+ 18 f 0.2133 0.9712 0.4481 . 1. 0
Te1 Te2- 3 a 0 0 0 . 1. 0
Te2 Te2- 18 f 0.1918 0.9613 0.6848 . 1. 0
#End of TTdata_42551-ICSD