
#(C) 2017 by FIZ Karlsruhe - Leibniz Institute for Information Infrastructure.  All rights reserved.
data_425510-ICSD
_database_code_ICSD 425510
_audit_creation_date 2014-02-01
_chemical_name_systematic 'Divanadium pentaoxide'
_chemical_formula_structural 'V2 O5'
_chemical_formula_sum 'O5 V2'
_chemical_name_structure_type Sb2O5
_exptl_crystal_density_diffrn 4.16
_cell_measurement_temperature 298.
_publ_section_title

;
The high pressure phases beta- and delta-V2 O5. Structure refinement,
electrical and optical properties, thermal stability
;
loop_
_citation_id
_citation_journal_full
_citation_year
_citation_journal_volume
_citation_page_first
_citation_page_last
_citation_journal_id_ASTM
primary 'High pressure research' 2013 33 399 408 HPRSEL
loop_
_publ_author_name
'Zibrov, Igor P.'
'Filonenko, Vladimir P.'
'Lyapin, Sergey G.'
'Sidorov, Vladimir A.'
_cell_length_a 11.96954(11)
_cell_length_b 4.69915(5)
_cell_length_c 5.32642(6)
_cell_angle_alpha 90.
_cell_angle_beta 104.3270(9)
_cell_angle_gamma 90.
_cell_volume 290.28
_cell_formula_units_Z 4
_symmetry_space_group_name_H-M 'C 1 2/c 1'
_symmetry_Int_Tables_number 15
_refine_ls_R_factor_all 0.0224
loop_
_symmetry_equiv_pos_site_id
_symmetry_equiv_pos_as_xyz
1 'x, -y, z+1/2'
2 '-x, -y, -z'
3 '-x, y, -z+1/2'
4 'x, y, z'
5 'x+1/2, -y+1/2, z+1/2'
6 '-x+1/2, -y+1/2, -z'
7 '-x+1/2, y+1/2, -z+1/2'
8 'x+1/2, y+1/2, z'
loop_
_atom_type_symbol
_atom_type_oxidation_number
V5+ 5
O2- -2
loop_
_atom_site_label
_atom_site_type_symbol
_atom_site_symmetry_multiplicity
_atom_site_Wyckoff_symbol
_atom_site_fract_x
_atom_site_fract_y
_atom_site_fract_z
_atom_site_B_iso_or_equiv
_atom_site_occupancy
_atom_site_attached_hydrogens
V1 V5+ 8 f 0.14315(11) 0.2624(5) 0.74462(27) 0.0103(5) 1. 0
O1 O2- 4 e 0. 0.3839(12) 0.75 0.0035(23) 1. 0
O2 O2- 8 f 0.1073(4) 0.0698(8) 0.4789(11) 0.0037(13) 1. 0
O3 O2- 8 f 0.2028(4) 0.5702(9) 0.6309(9) 0.0060(16) 1. 0
#End of TTdata_425510-ICSD