
#(C) 2017 by FIZ Karlsruhe - Leibniz Institute for Information Infrastructure.  All rights reserved.
data_425655-ICSD
_database_code_ICSD 425655
_audit_creation_date 2014-02-01
_chemical_name_systematic 'Niobium osmium boride (2/1/2)'
_chemical_formula_structural 'Nb2 Os B2'
_chemical_formula_sum 'B2 Nb2 Os1'
_chemical_name_structure_type Nb2OsB2
_exptl_crystal_density_diffrn 10.95
_cell_measurement_temperature 293.
_publ_section_title

;
Nb2 Os B2, with a new twofold superstructure of the U3 Si2 type: Synthesis,
crystal chemistry and chemical bonding
;
loop_
_citation_id
_citation_journal_full
_citation_year
_citation_journal_volume
_citation_page_first
_citation_page_last
_citation_journal_id_ASTM
primary 'Journal of Solid State Chemistry' 2013 203 304 309 JSSCBI
loop_
_publ_author_name
'Mbarki, Mohammed'
'Touzani, Rachid St.'
'Fokwa, Boniface P.T.'
_cell_length_a 5.9220(9)
_cell_length_b 5.9220(9)
_cell_length_c 6.8790(14)
_cell_angle_alpha 90.
_cell_angle_beta 90.
_cell_angle_gamma 90.
_cell_volume 241.25
_cell_formula_units_Z 4
_symmetry_space_group_name_H-M 'P 4/m n c'
_symmetry_Int_Tables_number 128
_refine_ls_R_factor_all 0.0452
loop_
_symmetry_equiv_pos_site_id
_symmetry_equiv_pos_as_xyz
1 'y+1/2, x+1/2, -z+1/2'
2 '-y+1/2, -x+1/2, -z+1/2'
3 '-y, x, -z'
4 'y, -x, -z'
5 'x+1/2, -y+1/2, -z+1/2'
6 '-x+1/2, y+1/2, -z+1/2'
7 'x, y, -z'
8 '-x, -y, -z'
9 '-y+1/2, -x+1/2, z+1/2'
10 'y+1/2, x+1/2, z+1/2'
11 'y, -x, z'
12 '-y, x, z'
13 '-x+1/2, y+1/2, z+1/2'
14 'x+1/2, -y+1/2, z+1/2'
15 '-x, -y, z'
16 'x, y, z'
loop_
_atom_type_symbol
_atom_type_oxidation_number
Os0+ 0
Nb0+ 0
B0+ 0
loop_
_atom_site_label
_atom_site_type_symbol
_atom_site_symmetry_multiplicity
_atom_site_Wyckoff_symbol
_atom_site_fract_x
_atom_site_fract_y
_atom_site_fract_z
_atom_site_B_iso_or_equiv
_atom_site_occupancy
_atom_site_attached_hydrogens
Os1 Os0+ 4 e 0. 0. 0.27809(14) 0.0063(2) 1 0
Nb1 Nb0+ 8 h 0.3140(2) 0.1647(2) 0. 0.0056(3) 1 0
B1 B0+ 8 g 0.387(2) 0.887(2) 0.25 0.007(3) 1 0
loop_
_atom_site_aniso_label
_atom_site_aniso_type_symbol
_atom_site_aniso_U_11
_atom_site_aniso_U_22
_atom_site_aniso_U_33
_atom_site_aniso_U_12
_atom_site_aniso_U_13
_atom_site_aniso_U_23
Os1 Os0+ 0.0049(3) 0.0049(3) 0.0089(4) 0. 0. 0.
Nb1 Nb0+ 0.0040(6) 0.0053(6) 0.0075(6) 0.0002(5) 0. 0.
#End of TTdata_425655-ICSD