
#(C) 2017 by FIZ Karlsruhe - Leibniz Institute for Information Infrastructure.  All rights reserved.
data_425769-ICSD
_database_code_ICSD 425769
_audit_creation_date 2014-02-01
_chemical_name_systematic 'Yttrium ruthenium germanide (3/2/3)'
_chemical_formula_structural 'Y3 Ru2 Ge3'
_chemical_formula_sum 'Ge3 Ru2 Y3'
_chemical_name_structure_type Hf3Ni2Si3
_exptl_crystal_density_diffrn 7.18
_cell_measurement_temperature 173.
_publ_section_title

;
Ternary rare-earth ruthenium and iridium germanides RE3M2Ge3 (RE=Y, Gd-Tm, Lu;
M=Ru, Ir)
;
loop_
_citation_id
_citation_journal_full
_citation_year
_citation_journal_volume
_citation_page_first
_citation_page_last
_citation_journal_id_ASTM
primary 'Journal of Solid State Chemistry' 2013 202 241 249 JSSCBI
loop_
_publ_author_name
'Oliynyk, Anton O.'
'Stoyko, Stanislav S.'
'Mar, Arthur'
_cell_length_a 4.2477(6)
_cell_length_b 10.7672(16)
_cell_length_c 13.894(2)
_cell_angle_alpha 90.
_cell_angle_beta 90.
_cell_angle_gamma 90.
_cell_volume 635.45
_cell_formula_units_Z 4
_symmetry_space_group_name_H-M 'C m c m'
_symmetry_Int_Tables_number 63
_refine_ls_R_factor_all 0.0428
loop_
_symmetry_equiv_pos_site_id
_symmetry_equiv_pos_as_xyz
1 '-x, y, -z+1/2'
2 '-x, -y, z+1/2'
3 '-x, y, z'
4 '-x, -y, -z'
5 'x, -y, z+1/2'
6 'x, y, -z+1/2'
7 'x, -y, -z'
8 'x, y, z'
9 '-x+1/2, y+1/2, -z+1/2'
10 '-x+1/2, -y+1/2, z+1/2'
11 '-x+1/2, y+1/2, z'
12 '-x+1/2, -y+1/2, -z'
13 'x+1/2, -y+1/2, z+1/2'
14 'x+1/2, y+1/2, -z+1/2'
15 'x+1/2, -y+1/2, -z'
16 'x+1/2, y+1/2, z'
loop_
_atom_type_symbol
_atom_type_oxidation_number
Y0+ 0
Ru0+ 0
Ge0+ 0
loop_
_atom_site_label
_atom_site_type_symbol
_atom_site_symmetry_multiplicity
_atom_site_Wyckoff_symbol
_atom_site_fract_x
_atom_site_fract_y
_atom_site_fract_z
_atom_site_B_iso_or_equiv
_atom_site_occupancy
_atom_site_attached_hydrogens
Y1 Y0+ 8 f 0. 0.07810(11) 0.11301(9) 0.0051(2) 1 0
Y2 Y0+ 4 c 0. 0.35575(17) 0.25 0.0064(3) 1 0
Ru1 Ru0+ 8 f 0. 0.21333(9) 0.58249(7) 0.0053(2) 1 0
Ge1 Ge0+ 8 f 0. 0.38334(13) 0.04027(10) 0.0056(3) 1 0
Ge2 Ge0+ 4 c 0. 0.66424(19) 0.25 0.0062(4) 1 0
loop_
_atom_site_aniso_label
_atom_site_aniso_type_symbol
_atom_site_aniso_U_11
_atom_site_aniso_U_22
_atom_site_aniso_U_33
_atom_site_aniso_U_12
_atom_site_aniso_U_13
_atom_site_aniso_U_23
Y1 Y0+ 0.0055(5) 0.0062(5) 0.0038(5) 0. 0. -0.0003(4)
Y2 Y0+ 0.0079(8) 0.0059(7) 0.0055(7) 0. 0. 0.
Ru1 Ru0+ 0.0052(4) 0.0053(4) 0.0054(4) 0. 0. -0.0004(3)
Ge1 Ge0+ 0.0048(5) 0.0069(5) 0.0052(5) 0. 0. -0.0004(4)
Ge2 Ge0+ 0.0052(8) 0.0094(8) 0.0041(8) 0. 0. 0.
#End of TTdata_425769-ICSD