
#(C) 2017 by FIZ Karlsruhe - Leibniz Institute for Information Infrastructure.  All rights reserved.
data_425778-ICSD
_database_code_ICSD 425778
_audit_creation_date 2015-02-01
_chemical_name_systematic 'Barium digold tetraphosphide'
_chemical_formula_structural 'Ba (Au2 P4)'
_chemical_formula_sum 'Au2 Ba1 P4'
_exptl_crystal_density_diffrn 6.89
_cell_measurement_temperature 293.
_publ_section_title
'Ba Au2 P4: Layered Zintl polyphosphide with infinite inf1(P-) chains'
loop_
_citation_id
_citation_journal_full
_citation_year
_citation_journal_volume
_citation_page_first
_citation_page_last
_citation_journal_id_ASTM
primary 'Inorganic Chemistry' 2013 52 7061 7067 INOCAJ
loop_
_publ_author_name
'Fulmer, James'
'Kaseman, Derrick C.'
'Dolyniuk, Juli-Anna'
'Lee, Kathleen'
'Sen, Sabyasachi'
'Kovnir, Kirill'
_cell_length_a 6.5171(16)
_cell_length_b 8.867(2)
_cell_length_c 21.844(5)
_cell_angle_alpha 90.
_cell_angle_beta 90.
_cell_angle_gamma 90.
_cell_volume 1262.3
_cell_formula_units_Z 8
_symmetry_space_group_name_H-M 'F d d d Z'
_symmetry_Int_Tables_number 70
_refine_ls_R_factor_all 0.0151
loop_
_symmetry_equiv_pos_site_id
_symmetry_equiv_pos_as_xyz
1 'x+3/4, y+3/4, -z'
2 'x+3/4, -y, z+3/4'
3 '-x, y+3/4, z+3/4'
4 '-x, -y, -z'
5 '-x+1/4, -y+1/4, z'
6 '-x+1/4, y, -z+1/4'
7 'x, -y+1/4, -z+1/4'
8 'x, y, z'
9 'x+3/4, y+1/4, -z+1/2'
10 'x+3/4, -y+1/2, z+1/4'
11 '-x, y+1/4, z+1/4'
12 '-x, -y+1/2, -z+1/2'
13 '-x+1/4, -y+3/4, z+1/2'
14 '-x+1/4, y+1/2, -z+3/4'
15 'x, -y+3/4, -z+3/4'
16 'x, y+1/2, z+1/2'
17 'x+1/4, y+3/4, -z+1/2'
18 'x+1/4, -y, z+1/4'
19 '-x+1/2, y+3/4, z+1/4'
20 '-x+1/2, -y, -z+1/2'
21 '-x+3/4, -y+1/4, z+1/2'
22 '-x+3/4, y, -z+3/4'
23 'x+1/2, -y+1/4, -z+3/4'
24 'x+1/2, y, z+1/2'
25 'x+1/4, y+1/4, -z'
26 'x+1/4, -y+1/2, z+3/4'
27 '-x+1/2, y+1/4, z+3/4'
28 '-x+1/2, -y+1/2, -z'
29 '-x+3/4, -y+3/4, z'
30 '-x+3/4, y+1/2, -z+1/4'
31 'x+1/2, -y+3/4, -z+1/4'
32 'x+1/2, y+1/2, z'
loop_
_atom_type_symbol
_atom_type_oxidation_number
Au1+ 1
Ba2+ 2
P1- -1
loop_
_atom_site_label
_atom_site_type_symbol
_atom_site_symmetry_multiplicity
_atom_site_Wyckoff_symbol
_atom_site_fract_x
_atom_site_fract_y
_atom_site_fract_z
_atom_site_B_iso_or_equiv
_atom_site_occupancy
_atom_site_attached_hydrogens
Au1 Au1+ 16 g 0.125 0.125 0.288143(12) 0.01342(11) 1 0
Ba1 Ba2+ 8 a 0.125 0.125 0.125 0.01851(16) 1 0
P1 P1- 32 h 0.4371(2) 0.25919(17) 0.29723(6) 0.0131(3) 1 0
loop_
_atom_site_aniso_label
_atom_site_aniso_type_symbol
_atom_site_aniso_U_11
_atom_site_aniso_U_22
_atom_site_aniso_U_33
_atom_site_aniso_U_12
_atom_site_aniso_U_13
_atom_site_aniso_U_23
Au1 Au1+ 0.01232(17) 0.01311(17) 0.01484(16) -0.00260(11) 0. 0.
Ba1 Ba2+ 0.0163(3) 0.0241(4) 0.0151(3) 0. 0. 0.
P1 P1- 0.0101(6) 0.0150(7) 0.0144(6) -0.0015(5) 0.0002(5) 0.0014(5)
#End of TTdata_425778-ICSD