
#(C) 2017 by FIZ Karlsruhe - Leibniz Institute for Information Infrastructure.  All rights reserved.
data_426-ICSD
_database_code_ICSD 426
_audit_creation_date 1984-09-04
_audit_update_record 2011-08-01
_chemical_name_systematic 'Tricalcium arsenide tribromide'
_chemical_formula_structural 'Ca3 As Br3'
_chemical_formula_sum 'As1 Br3 Ca3'
_exptl_crystal_density_diffrn 3.5
_publ_section_title
'Darstellung und Eigenschaften von Ca2 As Br, Sr2 As Cl und Ca3 As Br3'
loop_
_citation_id
_citation_journal_full
_citation_year
_citation_journal_volume
_citation_page_first
_citation_page_last
_citation_journal_id_ASTM
primary

;
Zeitschrift fuer Naturforschung, Teil B. Anorganische Chemie, Organische
Chemie (2,1947-32,1977)
; 1976 31 408 410 ZENBAX
loop_
_publ_author_name
'Hadenfeldt, C.'
_cell_length_a 5.91(9)
_cell_length_b 5.91(9)
_cell_length_c 5.91(9)
_cell_angle_alpha 90.
_cell_angle_beta 90.
_cell_angle_gamma 90.
_cell_volume 206.43
_cell_formula_units_Z 1
_symmetry_space_group_name_H-M 'P m -3'
_symmetry_Int_Tables_number 200
loop_
_symmetry_equiv_pos_site_id
_symmetry_equiv_pos_as_xyz
1 '-z, x, y'
2 'z, x, -y'
3 'z, -x, y'
4 '-z, -x, -y'
5 'y, -z, x'
6 '-y, z, x'
7 'y, z, -x'
8 '-y, -z, -x'
9 'x, y, -z'
10 'x, -y, z'
11 '-x, y, z'
12 '-x, -y, -z'
13 'z, -x, -y'
14 '-z, -x, y'
15 '-z, x, -y'
16 'z, x, y'
17 '-y, z, -x'
18 'y, -z, -x'
19 '-y, -z, x'
20 'y, z, x'
21 '-x, -y, z'
22 '-x, y, -z'
23 'x, -y, -z'
24 'x, y, z'
loop_
_atom_type_symbol
_atom_type_oxidation_number
Ca2+ 2
As3- -3
Br1- -1
loop_
_atom_site_label
_atom_site_type_symbol
_atom_site_symmetry_multiplicity
_atom_site_Wyckoff_symbol
_atom_site_fract_x
_atom_site_fract_y
_atom_site_fract_z
_atom_site_B_iso_or_equiv
_atom_site_occupancy
_atom_site_attached_hydrogens
Ca1 Ca2+ 3 d 0.5 0 0 . 1. 0
As1 As3- 1 a 0 0 0 . 1. 0
Br1 Br1- 3 c 0 0.5 0.5 . 1. 0
#End of TTdata_426-ICSD