
#(C) 2017 by FIZ Karlsruhe - Leibniz Institute for Information Infrastructure.  All rights reserved.
data_426279-ICSD
_database_code_ICSD 426279
_audit_creation_date 2014-02-01
_chemical_name_systematic 'Lanthanum telluride chloride'
_chemical_formula_structural 'La Te Cl'
_chemical_formula_sum 'Cl1 La1 Te1'
_chemical_name_structure_type PbCl2
_exptl_crystal_density_diffrn 5.95
_cell_measurement_temperature 293.
_publ_section_title
'The First Rare-Earth Metal Telluride Chlorides, R Te Cl (R = La, Ce, Pr, Nd)'
loop_
_citation_id
_citation_journal_full
_citation_year
_citation_journal_volume
_citation_page_first
_citation_page_last
_citation_journal_id_ASTM
primary 'Zeitschrift fuer Anorganische und Allgemeine Chemie (1950) (DE)' 2013
639 2744 2747 ZAACAB
loop_
_publ_author_name
'Larres, Markus'
'Pantenburg, Ingo'
'Meyer, Gerd'
_cell_length_a 7.9515(11)
_cell_length_b 4.5077(8)
_cell_length_c 9.4037(13)
_cell_angle_alpha 90.
_cell_angle_beta 90.
_cell_angle_gamma 90.
_cell_volume 337.06
_cell_formula_units_Z 4
_symmetry_space_group_name_H-M 'P n m a'
_symmetry_Int_Tables_number 62
_refine_ls_R_factor_all 0.0813
loop_
_symmetry_equiv_pos_site_id
_symmetry_equiv_pos_as_xyz
1 'x+1/2, y, -z+1/2'
2 'x, -y+1/2, z'
3 '-x+1/2, y+1/2, z+1/2'
4 '-x, -y, -z'
5 '-x+1/2, -y, z+1/2'
6 '-x, y+1/2, -z'
7 'x+1/2, -y+1/2, -z+1/2'
8 'x, y, z'
loop_
_atom_type_symbol
_atom_type_oxidation_number
Te2- -2
La3+ 3
Cl1- -1
loop_
_atom_site_label
_atom_site_type_symbol
_atom_site_symmetry_multiplicity
_atom_site_Wyckoff_symbol
_atom_site_fract_x
_atom_site_fract_y
_atom_site_fract_z
_atom_site_B_iso_or_equiv
_atom_site_occupancy
_atom_site_attached_hydrogens
Te1 Te2- 4 c 0.46127(16) 0.25 0.66846(13) 0.0052(7) 1 0
La1 La3+ 4 c 0.23844(15) 0.25 0.36840(12) 0.0053(7) 1 0
Cl1 Cl1- 4 c -0.1343(6) 0.25 0.4396(4) 0.0056(10) 1 0
loop_
_atom_site_aniso_label
_atom_site_aniso_type_symbol
_atom_site_aniso_U_11
_atom_site_aniso_U_22
_atom_site_aniso_U_33
_atom_site_aniso_U_12
_atom_site_aniso_U_13
_atom_site_aniso_U_23
Te1 Te2- 0.0065(9) 0.0000(10) 0.0092(10) 0. -0.0003(4) 0.
La1 La3+ 0.0074(10) 0.0000(9) 0.0083(10) 0. 0.0002(4) 0.
Cl1 Cl1- 0.008(2) 0.000(2) 0.009(2) 0. 0.0031(17) 0.
#End of TTdata_426279-ICSD