
data_42632-ICSD
_database_code_ICSD 42632
_audit_creation_date 2002-04-01
_audit_update_record 2012-08-01
_chemical_name_systematic 'Chromium phosphide (12/7)'
_chemical_formula_structural 'Cr12 P7'
_chemical_formula_sum 'Cr12 P7'
_chemical_name_structure_type Cr12P7
_exptl_crystal_density_diffrn 6.03
_cell_length_a 8.977
_cell_length_b 8.977
_cell_length_c 3.316
_cell_angle_alpha 90.
_cell_angle_beta 90.
_cell_angle_gamma 120.
_cell_volume 231.42
_cell_formula_units_Z 1
_symmetry_space_group_name_H-M 'P -6'
_symmetry_Int_Tables_number 174
_refine_ls_R_factor_all 0.09
loop_
_symmetry_equiv_pos_site_id
_symmetry_equiv_pos_as_xyz
1 '-x+y, -x, -z'
2 '-y, x-y, -z'
3 'x, y, -z'
4 '-x+y, -x, z'
5 '-y, x-y, z'
6 'x, y, z'
loop_
_atom_type_symbol
_atom_type_oxidation_number
Cr0+ 0
P0+ 0
loop_
_atom_site_label
_atom_site_type_symbol
_atom_site_symmetry_multiplicity
_atom_site_Wyckoff_symbol
_atom_site_fract_x
_atom_site_fract_y
_atom_site_fract_z
_atom_site_B_iso_or_equiv
_atom_site_occupancy
_atom_site_attached_hydrogens
Cr1 Cr0+ 3 j 0.3694(17) 0.5092(18) 0 0.46(20) 1. 0
Cr2 Cr0+ 3 j 0.0162(20) 0.2577(18) 0 1.76(32) 1. 0
Cr3 Cr0+ 3 k 0.5091(21) 0.1315(17) 0.5 1.08(24) 1. 0
Cr4 Cr0+ 3 k 0.7894(25) 0.0125(27) 0.5 2.95(42) 1. 0
P1 P0+ 1 a 0 0 0 0.10(48) 1. 0
P2 P0+ 3 j 0.4497(22) 0.2881(24) 0 0.32(40) 1. 0
P3 P0+ 3 k 0.1634(30) 0.4408(33) 0.5 2.01(64) 1. 0
