
data_42727-ICSD
_database_code_ICSD 42727
_audit_creation_date 2000-07-15
_chemical_name_systematic 'Iron telluride (1/2)'
_chemical_formula_structural 'Fe Te2'
_chemical_formula_sum 'Fe1 Te2'
_chemical_name_structure_type Marcasite-FeS2(oP6)
_chemical_name_mineral Frohbergite
_exptl_crystal_density_diffrn 8.08
_cell_length_a 5.2655(8)
_cell_length_b 6.2679(8)
_cell_length_c 3.8738(7)
_cell_angle_alpha 90.
_cell_angle_beta 90.
_cell_angle_gamma 90.
_cell_volume 127.85
_cell_formula_units_Z 2
_symmetry_space_group_name_H-M 'P n n 2'
_symmetry_Int_Tables_number 34
_refine_ls_R_factor_all 0.0737
loop_
_symmetry_equiv_pos_site_id
_symmetry_equiv_pos_as_xyz
1 'x+1/2, -y+1/2, z+1/2'
2 '-x+1/2, y+1/2, z+1/2'
3 '-x, -y, z'
4 'x, y, z'
loop_
_atom_type_symbol
_atom_type_oxidation_number
Fe0+ 0
Te0+ 0
loop_
_atom_site_label
_atom_site_type_symbol
_atom_site_symmetry_multiplicity
_atom_site_Wyckoff_symbol
_atom_site_fract_x
_atom_site_fract_y
_atom_site_fract_z
_atom_site_B_iso_or_equiv
_atom_site_occupancy
_atom_site_attached_hydrogens
Fe1 Fe0+ 2 a 0 0 0 . 1. 0
Te1 Te0+ 4 c 0.2241(1) 0.3620(1) 0.0218(28) . 1. 0
loop_
_atom_site_aniso_label
_atom_site_aniso_type_symbol
_atom_site_aniso_beta_11
_atom_site_aniso_beta_22
_atom_site_aniso_beta_33
_atom_site_aniso_beta_12
_atom_site_aniso_beta_13
_atom_site_aniso_beta_23
Fe1 Fe0+ 0.0025(3) 0.0012(2) 0.0006(36) -.0004(3) 0 0
Te1 Te0+ 0.0032(1) 0.0023(1) 0.0087(15) -.0003(1) 0.0031(6) -.0024(5)
