
#(C) 2017 by FIZ Karlsruhe - Leibniz Institute for Information Infrastructure.  All rights reserved.
data_427679-ICSD
_database_code_ICSD 427679
_audit_creation_date 2015-02-01
_chemical_name_systematic 'Thallium(I) telluride bromide (5/2/1)'
_chemical_formula_structural 'Tl5 Te2 Br'
_chemical_formula_sum 'Br1 Te2 Tl5'
_exptl_crystal_density_diffrn 8.68
_cell_measurement_temperature 295.
_publ_section_title 'The crystal and electronic structure of TI5Te2Br'
loop_
_citation_id
_citation_journal_full
_citation_year
_citation_journal_volume
_citation_page_first
_citation_page_last
_citation_journal_id_ASTM
primary 'Zeitschrift fuer Anorganische und Allgemeine Chemie (1950) (DE)' 2014
640 2373 2373 ZAACAB
loop_
_publ_author_name
'Isaeva, Anna'
'Doert, Thomas'
_cell_length_a 8.9774(1)
_cell_length_b 8.9774(1)
_cell_length_c 12.878(1)
_cell_angle_alpha 90
_cell_angle_beta 90
_cell_angle_gamma 90
_cell_volume 1037.88
_cell_formula_units_Z 4
_symmetry_space_group_name_H-M 'I 4/m c m'
_symmetry_Int_Tables_number 140
_refine_ls_R_factor_all 0.0313
loop_
_symmetry_equiv_pos_site_id
_symmetry_equiv_pos_as_xyz
1 'y, x, -z+1/2'
2 '-y, -x, -z+1/2'
3 '-y, x, -z'
4 'y, -x, -z'
5 'x, -y, -z+1/2'
6 '-x, y, -z+1/2'
7 'x, y, -z'
8 '-x, -y, -z'
9 '-y, -x, z+1/2'
10 'y, x, z+1/2'
11 'y, -x, z'
12 '-y, x, z'
13 '-x, y, z+1/2'
14 'x, -y, z+1/2'
15 '-x, -y, z'
16 'x, y, z'
17 'y+1/2, x+1/2, -z'
18 '-y+1/2, -x+1/2, -z'
19 '-y+1/2, x+1/2, -z+1/2'
20 'y+1/2, -x+1/2, -z+1/2'
21 'x+1/2, -y+1/2, -z'
22 '-x+1/2, y+1/2, -z'
23 'x+1/2, y+1/2, -z+1/2'
24 '-x+1/2, -y+1/2, -z+1/2'
25 '-y+1/2, -x+1/2, z'
26 'y+1/2, x+1/2, z'
27 'y+1/2, -x+1/2, z+1/2'
28 '-y+1/2, x+1/2, z+1/2'
29 '-x+1/2, y+1/2, z'
30 'x+1/2, -y+1/2, z'
31 '-x+1/2, -y+1/2, z+1/2'
32 'x+1/2, y+1/2, z+1/2'
loop_
_atom_type_symbol
_atom_type_oxidation_number
Tl1+ 1
Br1- -1
Te2- -2
loop_
_atom_site_label
_atom_site_type_symbol
_atom_site_symmetry_multiplicity
_atom_site_Wyckoff_symbol
_atom_site_fract_x
_atom_site_fract_y
_atom_site_fract_z
_atom_site_B_iso_or_equiv
_atom_site_occupancy
_atom_site_attached_hydrogens
Tl1 Tl1+ 4 c 0 0 0 0.0358(3) 1 0
Tl2 Tl1+ 16 l 0.14728(4) 0.64728(4) 0.15420(4) 0.03581(13) 1 0
Br1 Br1- 4 a 0 0 0.25 0.0380(6) 1 0
Te1 Te2- 8 h 0.34244(7) 0.84244(7) 0 0.0231(2) 1 0
loop_
_atom_site_aniso_label
_atom_site_aniso_type_symbol
_atom_site_aniso_U_11
_atom_site_aniso_U_22
_atom_site_aniso_U_33
_atom_site_aniso_U_12
_atom_site_aniso_U_13
_atom_site_aniso_U_23
Tl1 Tl1+ 0.0255(3) 0.0255(3) 0.0565(6) 0 0 0
Tl2 Tl1+ 0.0406(2) 0.0406(2) 0.0263(2) -0.0107(2) 0.00323(12) 0.00323(12)
Br1 Br1- 0.0317(7) 0.0317(7) 0.0507(15) 0 0 0
Te1 Te2- 0.0195(3) 0.0195(3) 0.0304(5) -0.0034(3) 0 0
#End of TTdata_427679-ICSD