
data_428469-ICSD
_database_code_ICSD 428469
_audit_creation_date 2016-02-01
_chemical_name_systematic 'Scandium silver germanide (1/1/1)'
_chemical_formula_structural 'Sc Ag Ge'
_chemical_formula_sum 'Ag1 Ge1 Sc1'
_chemical_name_structure_type ZrNiAl-Fe2P
_exptl_crystal_density_diffrn 6.83
_cell_length_a 6.8651
_cell_length_b 6.8651
_cell_length_c 4.0295
_cell_angle_alpha 90.
_cell_angle_beta 90.
_cell_angle_gamma 120.
_cell_volume 164.46
_cell_formula_units_Z 3
_symmetry_space_group_name_H-M 'P -6 2 m'
_symmetry_Int_Tables_number 189
_refine_ls_R_factor_all 0.053
loop_
_symmetry_equiv_pos_site_id
_symmetry_equiv_pos_as_xyz
1 '-x, -x+y, -z'
2 'x-y, -y, -z'
3 'y, x, -z'
4 '-x, -x+y, z'
5 'x-y, -y, z'
6 'y, x, z'
7 '-x+y, -x, -z'
8 '-y, x-y, -z'
9 'x, y, -z'
10 '-x+y, -x, z'
11 '-y, x-y, z'
12 'x, y, z'
loop_
_atom_type_symbol
_atom_type_oxidation_number
Sc0+ 0
Ag0+ 0
Ge0+ 0
loop_
_atom_site_label
_atom_site_type_symbol
_atom_site_symmetry_multiplicity
_atom_site_Wyckoff_symbol
_atom_site_fract_x
_atom_site_fract_y
_atom_site_fract_z
_atom_site_B_iso_or_equiv
_atom_site_occupancy
_atom_site_attached_hydrogens
Sc1 Sc0+ 3 f 0.5821 0. 0. . 1. 0
Ag1 Ag0+ 3 g 0.2526 0. 0.5 . 1. 0
Ge1 Ge0+ 2 d 0.3333 0.6667 0.5 . 1. 0
Ge2 Ge0+ 1 a 0. 0. 0. . 1. 0
loop_
_atom_site_aniso_label
_atom_site_aniso_type_symbol
_atom_site_aniso_U_11
_atom_site_aniso_U_22
_atom_site_aniso_U_33
_atom_site_aniso_U_12
_atom_site_aniso_U_13
_atom_site_aniso_U_23
Sc1 Sc0+ 56. 58. 62. 29. 0. 0.
Ag1 Ag0+ 68. 79. 99. 39. 0. 0.
Ge1 Ge0+ 57. 57. 63. 28. 0. 0.
Ge2 Ge0+ 93. 93. 40. 46. 0. 0.
