
data_428618-ICSD
_database_code_ICSD 428618
_audit_creation_date 2015-08-01
_chemical_name_systematic 'Cadmium palladium yttrium (3/1/10)'
_chemical_formula_structural 'Cd3 Pd Y10'
_chemical_formula_sum 'Cd3 Pd1 Y10'
_chemical_name_structure_type Hf9Mo4B/Al5Co2
_exptl_crystal_density_diffrn 5.57
_cell_measurement_temperature 293.
_cell_length_a 9.7379(4)
_cell_length_b 9.7379(4)
_cell_length_c 9.6823(5)
_cell_angle_alpha 90
_cell_angle_beta 90
_cell_angle_gamma 120
_cell_volume 795.13
_cell_formula_units_Z 2
_symmetry_space_group_name_H-M 'P 63/m m c'
_symmetry_Int_Tables_number 194
_refine_ls_R_factor_all 0.0337
loop_
_symmetry_equiv_pos_site_id
_symmetry_equiv_pos_as_xyz
1 'x, x-y, -z+1/2'
2 '-x+y, y, -z+1/2'
3 '-y, -x, -z+1/2'
4 '-x+y, -x, -z+1/2'
5 '-y, x-y, -z+1/2'
6 'x, y, -z+1/2'
7 '-x, -x+y, z+1/2'
8 'x-y, -y, z+1/2'
9 'y, x, z+1/2'
10 'x-y, x, z+1/2'
11 'y, -x+y, z+1/2'
12 '-x, -y, z+1/2'
13 '-x, -x+y, -z'
14 'x-y, -y, -z'
15 'y, x, -z'
16 'x-y, x, -z'
17 'y, -x+y, -z'
18 '-x, -y, -z'
19 'x, x-y, z'
20 '-x+y, y, z'
21 '-y, -x, z'
22 '-x+y, -x, z'
23 '-y, x-y, z'
24 'x, y, z'
loop_
_atom_type_symbol
_atom_type_oxidation_number
Pd0+ 0
Cd0+ 0
Y0+ 0
loop_
_atom_site_label
_atom_site_type_symbol
_atom_site_symmetry_multiplicity
_atom_site_Wyckoff_symbol
_atom_site_fract_x
_atom_site_fract_y
_atom_site_fract_z
_atom_site_B_iso_or_equiv
_atom_site_occupancy
_atom_site_attached_hydrogens
Pd1 Pd0+ 2 c 0.333333 0.666667 0.25 0.0121(4) 1 0
Cd1 Cd0+ 6 h 0.88482(6) 0.76965(13) 0.25 0.0172(3) 1 0
Y1 Y0+ 12 k 0.20727(5) 0.41454(10) 0.05928(8) 0.0123(3) 1 0
Y2 Y0+ 6 h 0.54354(8) 0.08707(16) 0.25 0.0132(4) 1 0
Y3 Y0+ 2 a 0 0 0 0.0205(6) 1 0
loop_
_atom_site_aniso_label
_atom_site_aniso_type_symbol
_atom_site_aniso_U_11
_atom_site_aniso_U_22
_atom_site_aniso_U_33
_atom_site_aniso_U_12
_atom_site_aniso_U_13
_atom_site_aniso_U_23
Pd1 Pd0+ 0.0146(5) 0.0146(5) 0.0071(7) 0.0073(3) 0 0
Cd1 Cd0+ 0.0194(4) 0.0174(5) 0.0142(4) 0.0087(3) 0 0
Y1 Y0+ 0.0125(3) 0.0128(4) 0.0117(3) 0.0064(2) -0.00093(15) -0.0019(3)
Y2 Y0+ 0.0151(4) 0.0125(6) 0.0111(5) 0.0062(3) 0 0
Y3 Y0+ 0.0168(7) 0.0168(7) 0.0279(12) 0.0084(4) 0 0
