
#(C) 2017 by FIZ Karlsruhe - Leibniz Institute for Information Infrastructure.  All rights reserved.
data_42880-ICSD
_database_code_ICSD 42880
_audit_creation_date 2000-07-15
_chemical_name_systematic 'Zirconium bismutide (1/2)'
_chemical_formula_structural 'Zr Bi2'
_chemical_formula_sum 'Bi2 Zr1'
_chemical_name_structure_type TiAs2
_exptl_crystal_density_diffrn 10.8
_publ_section_title

;
Strukturuntersuchungen im System Zirkon-Wismut und einigen quasihomologen
Legierungen
;
loop_
_citation_id
_citation_journal_full
_citation_year
_citation_journal_volume
_citation_page_first
_citation_page_last
_citation_journal_id_ASTM
primary 'Zeitschrift fuer Metallkunde' 1968 59 306 308 ZEMTAE
loop_
_publ_author_name
'Eberle, D.'
'Schubert, K.'
_cell_length_a 15.49
_cell_length_b 10.18
_cell_length_c 3.97
_cell_angle_alpha 90.
_cell_angle_beta 90.
_cell_angle_gamma 90.
_cell_volume 626.02
_cell_formula_units_Z 8
_symmetry_space_group_name_H-M 'P n n m'
_symmetry_Int_Tables_number 58
_refine_ls_R_factor_all 0.19
loop_
_symmetry_equiv_pos_site_id
_symmetry_equiv_pos_as_xyz
1 'x+1/2, -y+1/2, z+1/2'
2 '-x+1/2, y+1/2, z+1/2'
3 'x, y, -z'
4 '-x, -y, -z'
5 '-x+1/2, y+1/2, -z+1/2'
6 'x+1/2, -y+1/2, -z+1/2'
7 '-x, -y, z'
8 'x, y, z'
loop_
_atom_type_symbol
_atom_type_oxidation_number
Zr4+ 4
Bi2- -2
loop_
_atom_site_label
_atom_site_type_symbol
_atom_site_symmetry_multiplicity
_atom_site_Wyckoff_symbol
_atom_site_fract_x
_atom_site_fract_y
_atom_site_fract_z
_atom_site_B_iso_or_equiv
_atom_site_occupancy
_atom_site_attached_hydrogens
Zr1 Zr4+ 4 g 0.007 0.336 0.5 0.3 1. 0
Zr2 Zr4+ 4 g 0.243 0.025 0 0.3 1. 0
Bi1 Bi2- 4 g 0.057 0.122 0 0.3 1. 0
Bi2 Bi2- 4 g 0.351 0.346 0 0.3 1. 0
Bi3 Bi2- 4 g 0.199 0.236 0.5 0.3 1. 0
Bi4 Bi2- 4 g 0.395 0.014 0.5 0.3 1. 0
#End of TTdata_42880-ICSD