
#(C) 2017 by FIZ Karlsruhe - Leibniz Institute for Information Infrastructure.  All rights reserved.
data_42891-ICSD
_database_code_ICSD 42891
_audit_creation_date 2000-07-15
_audit_update_record 2009-02-01
_chemical_name_systematic 'Germanium bismuth telluride (1/4/7)'
_chemical_formula_structural 'Ge Bi4 Te7'
_chemical_formula_sum 'Bi4 Ge1 Te7'
_chemical_name_structure_type AgBiSe2
_exptl_crystal_density_diffrn 7.54
_publ_section_title
'An electron-diffraction study of the structure of Ge Bi4 Te7'
loop_
_citation_id
_citation_journal_full
_citation_year
_citation_journal_volume
_citation_page_first
_citation_page_last
_citation_journal_id_ASTM
primary Kristallografiya 1968 13 59 62 KRISAJ
loop_
_publ_author_name
'Agaev, K.A.'
'Talybov, A.G.'
'Semiletov, S.A.'
_cell_length_a 4.36
_cell_length_b 4.36
_cell_length_c 24.10999
_cell_angle_alpha 90.
_cell_angle_beta 90.
_cell_angle_gamma 120.
_cell_volume 396.92
_cell_formula_units_Z 1
_symmetry_space_group_name_H-M 'P -3 m 1'
_symmetry_Int_Tables_number 164
_refine_ls_R_factor_all 0.16
loop_
_symmetry_equiv_pos_site_id
_symmetry_equiv_pos_as_xyz
1 'x-y, -y, -z'
2 '-x, -x+y, -z'
3 'y, x, -z'
4 'x-y, x, -z'
5 'y, -x+y, -z'
6 '-x, -y, -z'
7 '-x+y, y, z'
8 'x, x-y, z'
9 '-y, -x, z'
10 '-x+y, -x, z'
11 '-y, x-y, z'
12 'x, y, z'
loop_
_atom_type_symbol
_atom_type_oxidation_number
Ge4+ 4
Bi2+ 2.5
Te2- -2
loop_
_atom_site_label
_atom_site_type_symbol
_atom_site_symmetry_multiplicity
_atom_site_Wyckoff_symbol
_atom_site_fract_x
_atom_site_fract_y
_atom_site_fract_z
_atom_site_B_iso_or_equiv
_atom_site_occupancy
_atom_site_attached_hydrogens
Ge1 Ge4+ 1 a 0 0 0 . 1. 0
Bi1 Bi2+ 2 d 0.3333 0.6667 -.165 . 1. 0
Bi2 Bi2+ 2 d 0.3333 0.6667 -.413 . 1. 0
Te1 Te2- 2 d 0.3333 0.6667 0.08 . 1. 0
Te2 Te2- 2 d 0.3333 0.6667 0.332 . 1. 0
Te3 Te2- 2 c 0 0 0.25 . 1. 0
Te4 Te2- 1 b 0 0 0.5 . 1. 0
#End of TTdata_42891-ICSD