
#(C) 2017 by FIZ Karlsruhe - Leibniz Institute for Information Infrastructure.  All rights reserved.
data_429116-ICSD
_database_code_ICSD 429116
_audit_creation_date 2015-02-01
_chemical_name_systematic 'Tantalum ruthenium boride (1/1/1)'
_chemical_formula_structural 'Ta Ru B'
_chemical_formula_sum 'B1 Ru1 Ta1'
_chemical_name_structure_type NbRuB
_exptl_crystal_density_diffrn 13.39
_cell_measurement_temperature 293.
_publ_section_title 'Synthesis and crystal chemistry of Ta Ru B und Ta2 Os B2'
loop_
_citation_id
_citation_journal_full
_citation_year
_citation_journal_volume
_citation_page_first
_citation_page_last
_citation_journal_id_ASTM
primary 'Zeitschrift fuer Anorganische und Allgemeine Chemie (1950) (DE)' 2014
640 2344 2344 ZAACAB
loop_
_publ_author_name
'Mbarki, Mohammed'
'Gladisch, Fabian C.'
'Fokwa, Boniface P.T.'
_cell_length_a 10.806(2)
_cell_length_b 3.1955(7)
_cell_length_c 6.3123(14)
_cell_angle_alpha 90.
_cell_angle_beta 90.
_cell_angle_gamma 90.
_cell_volume 217.96
_cell_formula_units_Z 6
_symmetry_space_group_name_H-M 'P m m a'
_symmetry_Int_Tables_number 51
_refine_ls_R_factor_all 0.0233
loop_
_symmetry_equiv_pos_site_id
_symmetry_equiv_pos_as_xyz
1 '-x+1/2, -y, z'
2 'x+1/2, -y, -z'
3 'x, -y, z'
4 '-x, -y, -z'
5 'x+1/2, y, -z'
6 '-x+1/2, y, z'
7 '-x, y, -z'
8 'x, y, z'
loop_
_atom_type_symbol
_atom_type_oxidation_number
Ta0+ 0
Ru0+ 0
B0+ 0
loop_
_atom_site_label
_atom_site_type_symbol
_atom_site_symmetry_multiplicity
_atom_site_Wyckoff_symbol
_atom_site_fract_x
_atom_site_fract_y
_atom_site_fract_z
_atom_site_B_iso_or_equiv
_atom_site_occupancy
_atom_site_attached_hydrogens
Ta1 Ta0+ 4 i 0.54404(5) 0. 0.22427(7) 0.00567(17) 1 0
Ta2 Ta0+ 2 e 0.25 0. 0.14471(11) 0.0055(2) 1 0
Ru1 Ru0+ 4 j 0.37562(9) 0.5 0.42553(15) 0.0055(2) 1 0
Ru2 Ru0+ 2 f 0.25 0.5 0.7995(2) 0.0082(3) 1 0
B1 B0+ 4 j 0.4141(14) 0.5 0.048(2) 0.013(2) 1 0
B2 B0+ 2 e 0.25 0. 0.552(3) 0.013(2) 1 0
loop_
_atom_site_aniso_label
_atom_site_aniso_type_symbol
_atom_site_aniso_U_11
_atom_site_aniso_U_22
_atom_site_aniso_U_33
_atom_site_aniso_U_12
_atom_site_aniso_U_13
_atom_site_aniso_U_23
Ta1 Ta0+ 0.0056(3) 0.0067(3) 0.0046(3) 0. -0.00019(17) 0.
Ta2 Ta0+ 0.0054(4) 0.0060(4) 0.0050(3) 0. 0. 0.
Ru1 Ru0+ 0.0046(5) 0.0092(5) 0.0027(4) 0. -0.0008(3) 0.
Ru2 Ru0+ 0.0044(7) 0.0167(8) 0.0034(6) 0. 0. 0.
#End of TTdata_429116-ICSD