
#(C) 2017 by FIZ Karlsruhe - Leibniz Institute for Information Infrastructure.  All rights reserved.
data_429117-ICSD
_database_code_ICSD 429117
_audit_creation_date 2015-02-01
_chemical_name_systematic 'Tantalum osmium boride (2/1/2)'
_chemical_formula_structural 'Ta2 Os B2'
_chemical_formula_sum 'B2 Os1 Ta2'
_chemical_name_structure_type Nb2OsB2
_exptl_crystal_density_diffrn 16.09
_cell_measurement_temperature 293.
_publ_section_title 'Synthesis and crystal chemistry of Ta Ru B und Ta2 Os B2'
loop_
_citation_id
_citation_journal_full
_citation_year
_citation_journal_volume
_citation_page_first
_citation_page_last
_citation_journal_id_ASTM
primary 'Zeitschrift fuer Anorganische und Allgemeine Chemie (1950) (DE)' 2014
640 2344 2344 ZAACAB
loop_
_publ_author_name
'Mbarki, Mohammed'
'Gladisch, Fabian C.'
'Fokwa, Boniface P.T.'
_cell_length_a 5.8776(14)
_cell_length_b 5.8776(14)
_cell_length_c 6.8572(17)
_cell_angle_alpha 90.
_cell_angle_beta 90.
_cell_angle_gamma 90.
_cell_volume 236.89
_cell_formula_units_Z 4
_symmetry_space_group_name_H-M 'P 4/m n c'
_symmetry_Int_Tables_number 128
_refine_ls_R_factor_all 0.0372
loop_
_symmetry_equiv_pos_site_id
_symmetry_equiv_pos_as_xyz
1 'y+1/2, x+1/2, -z+1/2'
2 '-y+1/2, -x+1/2, -z+1/2'
3 '-y, x, -z'
4 'y, -x, -z'
5 'x+1/2, -y+1/2, -z+1/2'
6 '-x+1/2, y+1/2, -z+1/2'
7 'x, y, -z'
8 '-x, -y, -z'
9 '-y+1/2, -x+1/2, z+1/2'
10 'y+1/2, x+1/2, z+1/2'
11 'y, -x, z'
12 '-y, x, z'
13 '-x+1/2, y+1/2, z+1/2'
14 'x+1/2, -y+1/2, z+1/2'
15 '-x, -y, z'
16 'x, y, z'
loop_
_atom_type_symbol
_atom_type_oxidation_number
Os0+ 0
Ta0+ 0
B0+ 0
loop_
_atom_site_label
_atom_site_type_symbol
_atom_site_symmetry_multiplicity
_atom_site_Wyckoff_symbol
_atom_site_fract_x
_atom_site_fract_y
_atom_site_fract_z
_atom_site_B_iso_or_equiv
_atom_site_occupancy
_atom_site_attached_hydrogens
Os1 Os0+ 4 e 0. 0. 0.27650(14) 0.0044(3) 1 0
Ta1 Ta0+ 8 h 0.31422(13) 0.16507(13) 0. 0.0046(2) 1 0
B1 B0+ 8 g 0.388(3) 0.888(3) 0.25 0.005(4) 1 0
loop_
_atom_site_aniso_label
_atom_site_aniso_type_symbol
_atom_site_aniso_U_11
_atom_site_aniso_U_22
_atom_site_aniso_U_33
_atom_site_aniso_U_12
_atom_site_aniso_U_13
_atom_site_aniso_U_23
Os1 Os0+ 0.0034(3) 0.0034(3) 0.0064(4) 0. 0. 0.
Ta1 Ta0+ 0.0043(4) 0.0041(4) 0.0054(3) 0.0001(3) 0. 0.
#End of TTdata_429117-ICSD