
#(C) 2017 by FIZ Karlsruhe - Leibniz Institute for Information Infrastructure.  All rights reserved.
data_429359-ICSD
_database_code_ICSD 429359
_audit_creation_date 2016-02-01
_chemical_name_systematic 'Strontium dinickel tetraphosphide'
_chemical_formula_structural 'Sr Ni2 P4'
_chemical_formula_sum 'Ni2 P4 Sr1'
_exptl_crystal_density_diffrn 4.64
_cell_measurement_temperature 90.
_publ_section_title

;
Twisted Kelvin cells and truncated octahedral cages in the crystal structures
of unconventional clathrates, A M2 P4 (A = Sr, Ba; M = Cu, Ni)
;
loop_
_citation_id
_citation_journal_full
_citation_year
_citation_journal_volume
_citation_page_first
_citation_page_last
_citation_journal_id_ASTM
primary 'Chemistry of Materials' 2015 27 4476 4484 CMATEX
loop_
_publ_author_name
'Dolyniuk, Juli-Anna'
'Wang, Jian'
'Lee, Kathleen'
'Kovnir, Kirill'
_cell_length_a 5.1928(2)
_cell_length_b 9.5598(4)
_cell_length_c 18.9575(8)
_cell_angle_alpha 90
_cell_angle_beta 90
_cell_angle_gamma 90
_cell_volume 941.09
_cell_formula_units_Z 8
_symmetry_space_group_name_H-M 'F d d d Z'
_symmetry_Int_Tables_number 70
_refine_ls_R_factor_all 0.0099
loop_
_symmetry_equiv_pos_site_id
_symmetry_equiv_pos_as_xyz
1 'x+3/4, y+3/4, -z'
2 'x+3/4, -y, z+3/4'
3 '-x, y+3/4, z+3/4'
4 '-x, -y, -z'
5 '-x+1/4, -y+1/4, z'
6 '-x+1/4, y, -z+1/4'
7 'x, -y+1/4, -z+1/4'
8 'x, y, z'
9 'x+3/4, y+1/4, -z+1/2'
10 'x+3/4, -y+1/2, z+1/4'
11 '-x, y+1/4, z+1/4'
12 '-x, -y+1/2, -z+1/2'
13 '-x+1/4, -y+3/4, z+1/2'
14 '-x+1/4, y+1/2, -z+3/4'
15 'x, -y+3/4, -z+3/4'
16 'x, y+1/2, z+1/2'
17 'x+1/4, y+3/4, -z+1/2'
18 'x+1/4, -y, z+1/4'
19 '-x+1/2, y+3/4, z+1/4'
20 '-x+1/2, -y, -z+1/2'
21 '-x+3/4, -y+1/4, z+1/2'
22 '-x+3/4, y, -z+3/4'
23 'x+1/2, -y+1/4, -z+3/4'
24 'x+1/2, y, z+1/2'
25 'x+1/4, y+1/4, -z'
26 'x+1/4, -y+1/2, z+3/4'
27 '-x+1/2, y+1/4, z+3/4'
28 '-x+1/2, -y+1/2, -z'
29 '-x+3/4, -y+3/4, z'
30 '-x+3/4, y+1/2, -z+1/4'
31 'x+1/2, -y+3/4, -z+1/4'
32 'x+1/2, y+1/2, z'
loop_
_atom_type_symbol
_atom_type_oxidation_number
Sr2+ 2
Ni2+ 2
P1- -1.5
loop_
_atom_site_label
_atom_site_type_symbol
_atom_site_symmetry_multiplicity
_atom_site_Wyckoff_symbol
_atom_site_fract_x
_atom_site_fract_y
_atom_site_fract_z
_atom_site_B_iso_or_equiv
_atom_site_occupancy
_atom_site_attached_hydrogens
Sr1 Sr2+ 8 b 0.125 0.125 0.625 0.00460(8) 1 0
Ni1 Ni2+ 16 g 0.125 0.125 0.00541(2) 0.00332(8) 1 0
P1 P1- 32 h 0.06351(6) 0.31813(3) 0.06867(2) 0.00349(9) 1 0
loop_
_atom_site_aniso_label
_atom_site_aniso_type_symbol
_atom_site_aniso_U_11
_atom_site_aniso_U_22
_atom_site_aniso_U_33
_atom_site_aniso_U_12
_atom_site_aniso_U_13
_atom_site_aniso_U_23
Sr1 Sr2+ 0.00376(13) 0.00309(12) 0.00697(13) 0. 0. 0.
Ni1 Ni2+ 0.00328(13) 0.00387(12) 0.00282(13) 0.00024(7) 0. 0.
P1 P1- 0.00320(16) 0.00389(15) 0.00338(15) 0.00014(10) -0.00002(10) -0.00036(11)
#End of TTdata_429359-ICSD