
data_429502-ICSD
_database_code_ICSD 429502
_audit_creation_date 2016-02-01
_chemical_name_systematic 'Platinum copper boride (9/3/5)'
_chemical_formula_structural 'Pt9 Cu3 B5'
_chemical_formula_sum 'B5 Cu3 Pt9'
_chemical_name_structure_type Fe2Ta9S6
_exptl_crystal_density_diffrn 16.11
_cell_measurement_temperature 293.
_cell_length_a 9.048(3)
_cell_length_b 9.048(3)
_cell_length_c 2.9085(10)
_cell_angle_alpha 90.
_cell_angle_beta 90.
_cell_angle_gamma 120.
_cell_volume 206.21
_cell_formula_units_Z 1
_symmetry_space_group_name_H-M 'P -6 2 m'
_symmetry_Int_Tables_number 189
_refine_ls_R_factor_all 0.0342
loop_
_symmetry_equiv_pos_site_id
_symmetry_equiv_pos_as_xyz
1 '-x, -x+y, -z'
2 'x-y, -y, -z'
3 'y, x, -z'
4 '-x, -x+y, z'
5 'x-y, -y, z'
6 'y, x, z'
7 '-x+y, -x, -z'
8 '-y, x-y, -z'
9 'x, y, -z'
10 '-x+y, -x, z'
11 '-y, x-y, z'
12 'x, y, z'
loop_
_atom_type_symbol
_atom_type_oxidation_number
Pt0+ 0
Cu0+ 0
B0+ 0
loop_
_atom_site_label
_atom_site_type_symbol
_atom_site_symmetry_multiplicity
_atom_site_Wyckoff_symbol
_atom_site_fract_x
_atom_site_fract_y
_atom_site_fract_z
_atom_site_B_iso_or_equiv
_atom_site_occupancy
_atom_site_attached_hydrogens
Pt1 Pt0+ 6 k 0.73651(13) 0.53973(12) 0.5 0.0054(3) 1 0
Pt2 Pt0+ 3 f 0.8239 1 1 0.0063(3) 1 0
Cu1 Cu0+ 3 f 0.5423(5) 1 1 0.0091(9) 1 0
B1 B0+ 3 g 0.196(4) 1 0.5 0.002(5) 1 0
B2 B0+ 2 c 0.6667 0.3333 1 0.002(5) 1 0
loop_
_atom_site_aniso_label
_atom_site_aniso_type_symbol
_atom_site_aniso_U_11
_atom_site_aniso_U_22
_atom_site_aniso_U_33
_atom_site_aniso_U_12
_atom_site_aniso_U_13
_atom_site_aniso_U_23
Pt1 Pt0+ 0.0046(4) 0.0038(5) 0.0075(4) 0.0018(3) 0 0
Pt2 Pt0+ 0.0052(5) 0.0057(6) 0.0082(6) 0.0029(3) 0 0
Cu1 Cu0+ 0.0068(16) 0.011(2) 0.011(2) 0.0053(11) 0 0
