
data_429795-ICSD
_database_code_ICSD 429795
_audit_creation_date 2016-08-01
_chemical_name_systematic 'Scandium nickel stannide (1/1/1) - HP-phase'
_chemical_formula_structural 'Sc Ni Sn'
_chemical_formula_sum 'Ni1 Sc1 Sn1'
_chemical_name_structure_type ZrNiAl-Fe2P
_exptl_crystal_density_diffrn 6.98
_cell_measurement_temperature 293.
_cell_length_a 7.2020(10)
_cell_length_b 7.2020(10)
_cell_length_c 3.5328(5)
_cell_angle_alpha 90.
_cell_angle_beta 90.
_cell_angle_gamma 120.
_cell_volume 158.69
_cell_formula_units_Z 3
_symmetry_space_group_name_H-M 'P -6 2 m'
_symmetry_Int_Tables_number 189
_refine_ls_R_factor_all 0.0322
loop_
_symmetry_equiv_pos_site_id
_symmetry_equiv_pos_as_xyz
1 '-x, -x+y, -z'
2 'x-y, -y, -z'
3 'y, x, -z'
4 '-x, -x+y, z'
5 'x-y, -y, z'
6 'y, x, z'
7 '-x+y, -x, -z'
8 '-y, x-y, -z'
9 'x, y, -z'
10 '-x+y, -x, z'
11 '-y, x-y, z'
12 'x, y, z'
loop_
_atom_type_symbol
_atom_type_oxidation_number
Sc0+ 0
Ni0+ 0
Sn0+ 0
loop_
_atom_site_label
_atom_site_type_symbol
_atom_site_symmetry_multiplicity
_atom_site_Wyckoff_symbol
_atom_site_fract_x
_atom_site_fract_y
_atom_site_fract_z
_atom_site_B_iso_or_equiv
_atom_site_occupancy
_atom_site_attached_hydrogens
Sc1 Sc0+ 3 f 0.3944(4) 0. 0. 0.0144(5) 1 0
Ni1 Ni0+ 1 a 0. 0. 0. 0.0152(7) 1 0
Ni2 Ni0+ 2 d 0.3333 0.6667 0.5 0.0226(7) 1 0
Sn1 Sn0+ 3 g 0.72922(12) 0. 0.5 0.0140(3) 1 0
loop_
_atom_site_aniso_label
_atom_site_aniso_type_symbol
_atom_site_aniso_U_11
_atom_site_aniso_U_22
_atom_site_aniso_U_33
_atom_site_aniso_U_12
_atom_site_aniso_U_13
_atom_site_aniso_U_23
Sc1 Sc0+ 0.0119(9) 0.0172(11) 0.0158(15) 0.0086(6) 0. 0.
Ni1 Ni0+ 0.0126(8) 0.0126(8) 0.021(2) 0.0063(4) 0. 0.
Ni2 Ni0+ 0.0118(6) 0.0118(6) 0.044(2) 0.0059(3) 0. 0.
Sn1 Sn0+ 0.0112(3) 0.0110(4) 0.0198(5) 0.0055(2) 0. 0.
