
data_43006-ICSD
_database_code_ICSD 43006
_audit_creation_date 2000-07-15
_audit_update_record 2006-04-01
_chemical_name_systematic 'Cesium aurate(I)'
_chemical_formula_structural 'Cs (Au O)'
_chemical_formula_sum 'Au1 Cs1 O1'
_chemical_name_structure_type KCuO
_exptl_crystal_density_diffrn 7.21
_cell_length_a 10.160(5)
_cell_length_b 10.16
_cell_length_c 6.170(3)
_cell_angle_alpha 90.
_cell_angle_beta 90.
_cell_angle_gamma 90.
_cell_volume 636.9
_cell_formula_units_Z 8
_symmetry_space_group_name_H-M 'I -4'
_symmetry_Int_Tables_number 82
loop_
_symmetry_equiv_pos_site_id
_symmetry_equiv_pos_as_xyz
1 '-y, x, -z'
2 'y, -x, -z'
3 '-x, -y, z'
4 'x, y, z'
5 '-y+1/2, x+1/2, -z+1/2'
6 'y+1/2, -x+1/2, -z+1/2'
7 '-x+1/2, -y+1/2, z+1/2'
8 'x+1/2, y+1/2, z+1/2'
loop_
_atom_type_symbol
_atom_type_oxidation_number
Cs1+ 1
Au1+ 1
O2- -2
loop_
_atom_site_label
_atom_site_type_symbol
_atom_site_symmetry_multiplicity
_atom_site_Wyckoff_symbol
_atom_site_fract_x
_atom_site_fract_y
_atom_site_fract_z
_atom_site_B_iso_or_equiv
_atom_site_occupancy
_atom_site_attached_hydrogens
Cs1 Cs1+ 8 g 0.184 0 0.75 . 1. 0
Au1 Au1+ 8 g 0.353 0.147 0.25 . 1. 0
O1 O2- 8 g 0.186 0 0.25 . 1. 0
