
#(C) 2017 by FIZ Karlsruhe - Leibniz Institute for Information Infrastructure.  All rights reserved.
data_430823-ICSD
_database_code_ICSD 430823
_audit_creation_date 2016-08-01
_chemical_name_systematic
'Tetrakis(trioxotungstate(V)) tetrakis(dioxophosphate(V))'
_chemical_formula_structural '(W O3)4 (P O2)4'
_chemical_formula_sum 'O20 P4 W4'
_exptl_crystal_density_diffrn 5.1
_cell_measurement_temperature 293.
_publ_section_title
'Substitution of W5+ in monophosphate tungsten bronzes by combinations Mn+/W6+'
loop_
_citation_id
_citation_journal_full
_citation_year
_citation_journal_volume
_citation_page_first
_citation_page_last
_citation_journal_id_ASTM
primary 'Zeitschrift fuer Naturforschung, B: Chemical Sciences' 2016 71 543 552
ZNBSEN
loop_
_publ_author_name
'Roy, Subrata Chandra'
'Assenmacher, Wilfried'
'Linden, Thomas'
'Esser, Lars'
'Mader, Werner'
'Glaum, Robert'
_cell_length_a 6.5541(4)
_cell_length_b 5.2334(7)
_cell_length_c 11.1862(7)
_cell_angle_alpha 90
_cell_angle_beta 90.330(6)
_cell_angle_gamma 90
_cell_volume 383.68
_cell_formula_units_Z 1
_symmetry_space_group_name_H-M 'P 1 21/m 1'
_symmetry_Int_Tables_number 11
_refine_ls_R_factor_all 0.0268
loop_
_symmetry_equiv_pos_site_id
_symmetry_equiv_pos_as_xyz
1 'x, -y+1/2, z'
2 '-x, -y, -z'
3 '-x, y+1/2, -z'
4 'x, y, z'
loop_
_atom_type_symbol
_atom_type_oxidation_number
W5+ 5
P5+ 5
O2- -2
loop_
_atom_site_label
_atom_site_type_symbol
_atom_site_symmetry_multiplicity
_atom_site_Wyckoff_symbol
_atom_site_fract_x
_atom_site_fract_y
_atom_site_fract_z
_atom_site_B_iso_or_equiv
_atom_site_occupancy
_atom_site_attached_hydrogens
W1 W5+ 2 e 0.66891(4) 0.25 0.56098(2) 0.00559(7) 1 0
W2 W5+ 2 e 0.83174(4) 0.25 0.06150(2) 0.00568(7) 1 0
P1 P5+ 2 e 1.0278(3) 0.25 0.34503(16) 0.0076(3) 1 0
P2 P5+ 2 e 0.4708(3) 0.25 -0.15535(16) 0.0074(3) 1 0
O1 O2- 2 e 0.6667(10) 0.25 -0.0846(6) 0.0290(16) 1 0
O2 O2- 2 e 0.8287(9) 0.25 0.4130(6) 0.0229(13) 1 0
O3 O2- 2 e 0.9824(9) 0.25 0.2129(5) 0.0203(13) 1 0
O4 O2- 2 e 0.5229(9) 0.25 0.7124(5) 0.0153(11) 1 0
O5 O2- 4 f 0.6468(11) -0.0104(14) 0.1277(5) 0.053(2) 1 0
O6 O2- 4 f 1.1463(10) 0.0148(14) 0.3748(5) 0.055(2) 1 0
O7 O2- 2 a 1. 0. 0. 0.0255(15) 1 0
O8 O2- 2 d 0.5 0. 0.5 0.0303(17) 1 0
loop_
_atom_site_aniso_label
_atom_site_aniso_type_symbol
_atom_site_aniso_U_11
_atom_site_aniso_U_22
_atom_site_aniso_U_33
_atom_site_aniso_U_12
_atom_site_aniso_U_13
_atom_site_aniso_U_23
W1 W5+ 0.00717(12) 0.00463(12) 0.00498(12) 0. -0.00058(8) 0.
W2 W5+ 0.00709(12) 0.00478(12) 0.00518(12) 0. 0.00017(8) 0.
P1 P5+ 0.0073(7) 0.0114(8) 0.0042(7) 0. -0.0014(5) 0.
P2 P5+ 0.0081(7) 0.0083(7) 0.0056(8) 0. -0.0003(5) 0.
O1 O2- 0.013(3) 0.056(5) 0.017(3) 0. -0.010(2) 0.
O2 O2- 0.018(3) 0.038(4) 0.013(3) 0. 0.007(2) 0.
O3 O2- 0.020(3) 0.033(4) 0.008(3) 0. -0.003(2) 0.
O4 O2- 0.021(3) 0.019(3) 0.006(2) 0. 0.0024(19) 0.
O5 O2- 0.079(4) 0.062(4) 0.019(3) -0.061(4) 0.008(3) -0.002(2)
O6 O2- 0.066(4) 0.065(4) 0.034(3) 0.060(4) 0.016(3) 0.028(3)
O7 O2- 0.042(4) 0.024(3) 0.010(3) 0.022(3) -0.004(2) -0.004(2)
O8 O2- 0.047(4) 0.028(4) 0.016(3) -0.028(3) 0.012(3) -0.011(3)
#End of TTdata_430823-ICSD