
data_430934-ICSD
_database_code_ICSD 430934
_audit_creation_date 2016-08-01
_chemical_name_systematic 'Yttrium palladium aluminide (1/2/1)'
_chemical_formula_structural 'Y Pd2 Al'
_chemical_formula_sum 'Al1 Pd2 Y1'
_exptl_crystal_density_diffrn 7.35
_cell_measurement_temperature 293.
_cell_length_a 4.339(2)
_cell_length_b 4.339(2)
_cell_length_c 9.105(2)
_cell_angle_alpha 90.
_cell_angle_beta 90.
_cell_angle_gamma 120.
_cell_volume 148.45
_cell_formula_units_Z 2
_symmetry_space_group_name_H-M 'P 63/m m c'
_symmetry_Int_Tables_number 194
_refine_ls_R_factor_all 0.0214
loop_
_symmetry_equiv_pos_site_id
_symmetry_equiv_pos_as_xyz
1 'x, x-y, -z+1/2'
2 '-x+y, y, -z+1/2'
3 '-y, -x, -z+1/2'
4 '-x+y, -x, -z+1/2'
5 '-y, x-y, -z+1/2'
6 'x, y, -z+1/2'
7 '-x, -x+y, z+1/2'
8 'x-y, -y, z+1/2'
9 'y, x, z+1/2'
10 'x-y, x, z+1/2'
11 'y, -x+y, z+1/2'
12 '-x, -y, z+1/2'
13 '-x, -x+y, -z'
14 'x-y, -y, -z'
15 'y, x, -z'
16 'x-y, x, -z'
17 'y, -x+y, -z'
18 '-x, -y, -z'
19 'x, x-y, z'
20 '-x+y, y, z'
21 '-y, -x, z'
22 '-x+y, -x, z'
23 '-y, x-y, z'
24 'x, y, z'
loop_
_atom_type_symbol
_atom_type_oxidation_number
Y0+ 0
Pd0+ 0
Al0+ 0
loop_
_atom_site_label
_atom_site_type_symbol
_atom_site_symmetry_multiplicity
_atom_site_Wyckoff_symbol
_atom_site_fract_x
_atom_site_fract_y
_atom_site_fract_z
_atom_site_B_iso_or_equiv
_atom_site_occupancy
_atom_site_attached_hydrogens
Y1 Y0+ 2 c 0.3333 0.6667 0.25 0.0109(3) 1 0
Pd1 Pd0+ 4 f 0.3333 0.6667 0.57817(8) 0.0099(2) 1 0
Al1 Al0+ 2 a 0. 0. 0. 0.0122(6) 1 0
loop_
_atom_site_aniso_label
_atom_site_aniso_type_symbol
_atom_site_aniso_U_11
_atom_site_aniso_U_22
_atom_site_aniso_U_33
_atom_site_aniso_U_12
_atom_site_aniso_U_13
_atom_site_aniso_U_23
Y1 Y0+ 0.0123(4) 0.0123(4) 0.0081(5) 0.00613(18) 0. 0.
Pd1 Pd0+ 0.0093(2) 0.0093(2) 0.0112(3) 0.00464(12) 0. 0.
Al1 Al0+ 0.0100(9) 0.0100(9) 0.0165(15) 0.0050(5) 0. 0.
