
#(C) 2017 by FIZ Karlsruhe - Leibniz Institute for Information Infrastructure.  All rights reserved.
data_431421-ICSD
_database_code_ICSD 431421
_audit_creation_date 2017-08-01
_chemical_name_systematic 'Ditantalum ruthenium diboride'
_chemical_formula_structural 'Ta2 Ru B2'
_chemical_formula_sum 'B2 Ru1 Ta2'
_chemical_name_structure_type Nb2OsB2
_exptl_crystal_density_diffrn 13.63
_cell_measurement_temperature 293.
_publ_section_title

;
Peierls-distorted Ru-chains and boron dumbbells in Nb2 Ru B2 and Ta2 Ru B2
from first-principles calculations and experiments
;
loop_
_citation_id
_citation_journal_full
_citation_year
_citation_journal_volume
_citation_page_first
_citation_page_last
_citation_journal_id_ASTM
primary 'European Journal of Inorganic Chemistry  (online)' 2016 2016 4104 4110
EJICFO
loop_
_publ_author_name
'St. Touzani, Rachid'
'Mbarki, Mohammed'
'Chen, Ximeng'
'Fokwa, Boniface P.T.'
_cell_length_a 5.895(5)
_cell_length_b 5.895(5)
_cell_length_c 6.794(6)
_cell_angle_alpha 90.
_cell_angle_beta 90.
_cell_angle_gamma 90.
_cell_volume 236.09
_cell_formula_units_Z 4
_symmetry_space_group_name_H-M 'P 4/m n c'
_symmetry_Int_Tables_number 128
_refine_ls_R_factor_all 0.0471
loop_
_symmetry_equiv_pos_site_id
_symmetry_equiv_pos_as_xyz
1 'y+1/2, x+1/2, -z+1/2'
2 '-y+1/2, -x+1/2, -z+1/2'
3 '-y, x, -z'
4 'y, -x, -z'
5 'x+1/2, -y+1/2, -z+1/2'
6 '-x+1/2, y+1/2, -z+1/2'
7 'x, y, -z'
8 '-x, -y, -z'
9 '-y+1/2, -x+1/2, z+1/2'
10 'y+1/2, x+1/2, z+1/2'
11 'y, -x, z'
12 '-y, x, z'
13 '-x+1/2, y+1/2, z+1/2'
14 'x+1/2, -y+1/2, z+1/2'
15 '-x, -y, z'
16 'x, y, z'
loop_
_atom_type_symbol
_atom_type_oxidation_number
Ru0+ 0
Ta0+ 0
B0+ 0
loop_
_atom_site_label
_atom_site_type_symbol
_atom_site_symmetry_multiplicity
_atom_site_Wyckoff_symbol
_atom_site_fract_x
_atom_site_fract_y
_atom_site_fract_z
_atom_site_B_iso_or_equiv
_atom_site_occupancy
_atom_site_attached_hydrogens
Ru1 Ru0+ 4 e 0. 0. 0.2756(5) 0.0049(7) 1 0
Ta1 Ta0+ 8 h 0.31400(15) 0.16729(15) 0. 0.0041(4) 1 0
B1 B0+ 8 g 0.385(4) 0.885(4) 0.25 0.010(6) 1 0
loop_
_atom_site_aniso_label
_atom_site_aniso_type_symbol
_atom_site_aniso_U_11
_atom_site_aniso_U_22
_atom_site_aniso_U_33
_atom_site_aniso_U_12
_atom_site_aniso_U_13
_atom_site_aniso_U_23
Ru1 Ru0+ 0.0029(8) 0.0029(8) 0.0091(19) 0. 0. 0.
Ta1 Ta0+ 0.0030(5) 0.0026(5) 0.0068(7) -0.0004(3) 0. 0.
#End of TTdata_431421-ICSD