
#(C) 2017 by FIZ Karlsruhe - Leibniz Institute for Information Infrastructure.  All rights reserved.
data_431879-ICSD
_database_code_ICSD 431879
_audit_creation_date 2017-08-01
_chemical_name_systematic 'Titanium(III) orthophosphate - phase V'
_chemical_formula_structural 'Ti P O4'
_chemical_formula_sum 'O4 P1 Ti1'
_exptl_crystal_density_diffrn 5.07
_cell_measurement_temperature 293.
_cell_measurement_pressure 48000000.
_publ_section_title

;
High-pressure phase transformations in Ti P O4: a route to pentacoordinated
phosphorus
;
loop_
_citation_id
_citation_journal_full
_citation_year
_citation_journal_volume
_citation_page_first
_citation_page_last
_citation_journal_id_ASTM
primary 'Angewandte Chemie. International Edition' 2016 55 15053 15057 ACIEF5
loop_
_publ_author_name
'Bykov, Maxim'
'Bykova, Elena'
'Hanfland, Michael'
'Liermann, Hanns-Peter'
'Kremer, Reinhard K.'
'Glaum, Robert'
'Dubrovinsky, Leonid'
'Smaalen, Sander van'
_cell_length_a 4.721(8)
_cell_length_b 7.050(7)
_cell_length_c 6.300(6)
_cell_angle_alpha 90
_cell_angle_beta 116.87(15)
_cell_angle_gamma 90
_cell_volume 187.04
_cell_formula_units_Z 4
_symmetry_space_group_name_H-M 'P 1 21/c 1'
_symmetry_Int_Tables_number 14
_refine_ls_R_factor_all 0.0755
loop_
_symmetry_equiv_pos_site_id
_symmetry_equiv_pos_as_xyz
1 'x, -y+1/2, z+1/2'
2 '-x, -y, -z'
3 '-x, y+1/2, -z+1/2'
4 'x, y, z'
loop_
_atom_type_symbol
_atom_type_oxidation_number
Ti3+ 3
P5+ 5
O2- -2
loop_
_atom_site_label
_atom_site_type_symbol
_atom_site_symmetry_multiplicity
_atom_site_Wyckoff_symbol
_atom_site_fract_x
_atom_site_fract_y
_atom_site_fract_z
_atom_site_B_iso_or_equiv
_atom_site_occupancy
_atom_site_attached_hydrogens
Ti1 Ti3+ 4 e 0.5843(7) -0.0024(5) -0.2106(4) 0.0189(10) 1 0
P1 P5+ 4 e -0.0484(10) 0.2294(7) -0.3502(7) 0.0179(15) 1 0
O1 O2- 4 e -0.040(2) 0.1673(17) -0.0934(15) 0.0119(17) 1 0
O2 O2- 4 e 0.316(3) 0.233(2) -0.2375(19) 0.021(2) 1 0
O3 O2- 4 e -0.237(3) 0.0476(17) -0.4597(17) 0.016(2) 1 0
O4 O2- 4 e -0.269(3) 0.4009(17) -0.3754(17) 0.018(2) 1 0
loop_
_atom_site_aniso_label
_atom_site_aniso_type_symbol
_atom_site_aniso_U_11
_atom_site_aniso_U_22
_atom_site_aniso_U_33
_atom_site_aniso_U_12
_atom_site_aniso_U_13
_atom_site_aniso_U_23
Ti1 Ti3+ 0.0192(15) 0.0161(19) 0.0175(11) -0.0002(10) 0.0047(9) -0.0006(9)
P1 P5+ 0.0109(19) 0.020(3) 0.0198(16) -0.0015(14) 0.0045(12) -0.0002(13)
#End of TTdata_431879-ICSD