
data_432122-ICSD
_database_code_ICSD 432122
_audit_creation_date 2017-08-01
_chemical_name_systematic 'Gold barium gallide (1/1/1)'
_chemical_formula_structural 'Au1 Ba1 Ga1'
_chemical_formula_sum 'Au1 Ba1 Ga1'
_exptl_crystal_density_diffrn 8.05
_cell_measurement_temperature 293.
_cell_length_a 6.9349(4)
_cell_length_b 6.9349(4)
_cell_length_c 6.9349(4)
_cell_angle_alpha 90
_cell_angle_beta 90
_cell_angle_gamma 90
_cell_volume 333.51
_cell_formula_units_Z 4
_symmetry_space_group_name_H-M 'P 21 3'
_symmetry_Int_Tables_number 198
_refine_ls_R_factor_all 0.0396
loop_
_symmetry_equiv_pos_site_id
_symmetry_equiv_pos_as_xyz
1 '-z+1/2, -x, y+1/2'
2 '-y+1/2, -z, x+1/2'
3 '-x+1/2, -y, z+1/2'
4 '-z, x+1/2, -y+1/2'
5 '-y, z+1/2, -x+1/2'
6 '-x, y+1/2, -z+1/2'
7 'z+1/2, -x+1/2, -y'
8 'y+1/2, -z+1/2, -x'
9 'x+1/2, -y+1/2, -z'
10 'z, x, y'
11 'y, z, x'
12 'x, y, z'
loop_
_atom_type_symbol
_atom_type_oxidation_number
Ga0+ 0
Ba0+ 0
Au0+ 0
loop_
_atom_site_label
_atom_site_type_symbol
_atom_site_symmetry_multiplicity
_atom_site_Wyckoff_symbol
_atom_site_fract_x
_atom_site_fract_y
_atom_site_fract_z
_atom_site_B_iso_or_equiv
_atom_site_occupancy
_atom_site_attached_hydrogens
Ga1 Ga0+ 4 a 0.9116(2) 0.9116(2) 0.9116(2) 0.0222(3) 1 0
Ba1 Ba0+ 4 a 0.61436(12) 0.61436(12) 0.61436(12) 0.02044(18) 1 0
Au1 Au0+ 4 a 0.33658(8) 0.33658(8) 0.33658(8) 0.02086(14) 1 0
loop_
_atom_site_aniso_label
_atom_site_aniso_type_symbol
_atom_site_aniso_U_11
_atom_site_aniso_U_22
_atom_site_aniso_U_33
_atom_site_aniso_U_12
_atom_site_aniso_U_13
_atom_site_aniso_U_23
Ga1 Ga0+ 0.0222(6) 0.0222(6) 0.0222(6) 0.0020(6) 0.0020(6) 0.0020(6)
Ba1 Ba0+ 0.0204(3) 0.0204(3) 0.0204(3) 0.0018(3) 0.0018(3) 0.0018(3)
Au1 Au0+ 0.0209(2) 0.0209(2) 0.0209(2) -0.0005(2) -0.0005(2) -0.0005(2)
