
#(C) 2017 by FIZ Karlsruhe - Leibniz Institute for Information Infrastructure.  All rights reserved.
data_43223-ICSD
_database_code_ICSD 43223
_audit_creation_date 2000-07-15
_audit_update_record 2012-08-01
_chemical_name_systematic 'Chromium arsenide (2/1)'
_chemical_formula_structural 'Cr2 As'
_chemical_formula_sum 'As1 Cr2'
_chemical_name_structure_type Cu2Sb
_exptl_crystal_density_diffrn 7.22
_publ_section_title 'On the neutron diffraction study of Cr2 As'
loop_
_citation_id
_citation_journal_full
_citation_year
_citation_journal_volume
_citation_page_first
_citation_page_last
_citation_journal_id_ASTM
primary 'Journal of the Physical Society of Japan' 1965 20 2244 2248 JUPSAU
loop_
_publ_author_name
'Watanabe, H.'
'Nakagawa, Y.'
'Sato, K.'
_cell_length_a 3.603
_cell_length_b 3.603
_cell_length_c 6.338
_cell_angle_alpha 90.
_cell_angle_beta 90.
_cell_angle_gamma 90.
_cell_volume 82.28
_cell_formula_units_Z 2
_symmetry_space_group_name_H-M 'P 4/n m m S'
_symmetry_Int_Tables_number 129
loop_
_symmetry_equiv_pos_site_id
_symmetry_equiv_pos_as_xyz
1 '-y+1/2, -x+1/2, z'
2 'y+1/2, x+1/2, z'
3 '-y, -x, -z'
4 'y, x, -z'
5 'y+1/2, -x+1/2, z'
6 '-y+1/2, x+1/2, z'
7 'y, -x, -z'
8 '-y, x, -z'
9 'x+1/2, -y+1/2, -z'
10 '-x+1/2, y+1/2, -z'
11 'x, -y, z'
12 '-x, y, z'
13 '-x+1/2, -y+1/2, -z'
14 'x+1/2, y+1/2, -z'
15 '-x, -y, z'
16 'x, y, z'
loop_
_atom_type_symbol
_atom_type_oxidation_number
Cr0+ 0
As0+ 0
loop_
_atom_site_label
_atom_site_type_symbol
_atom_site_symmetry_multiplicity
_atom_site_Wyckoff_symbol
_atom_site_fract_x
_atom_site_fract_y
_atom_site_fract_z
_atom_site_B_iso_or_equiv
_atom_site_occupancy
_atom_site_attached_hydrogens
Cr1 Cr0+ 2 a 0 0 0 . 1. 0
Cr2 Cr0+ 2 c 0 0.5 0.325(3) . 1. 0
As1 As0+ 2 c 0 0.5 0.725(3) . 1. 0
#End of TTdata_43223-ICSD