
#(C) 2017 by FIZ Karlsruhe - Leibniz Institute for Information Infrastructure.  All rights reserved.
data_43233-ICSD
_database_code_ICSD 43233
_audit_creation_date 2000-07-15
_audit_update_record 2010-08-01
_chemical_name_systematic 'Niobium cobalt silicon (4/1/1)'
_chemical_formula_structural 'Nb4 Co Si'
_chemical_formula_sum 'Co1 Nb4 Si1'
_chemical_name_structure_type CoNb4Si
_exptl_crystal_density_diffrn 7.87
_publ_section_title
'The compounds Nb4 Fe Si, Nb4 Co Si, Nb4 Ni Si and their crystal structures'
loop_
_citation_id
_citation_journal_full
_citation_year
_citation_journal_volume
_citation_page_first
_citation_page_last
_citation_journal_id_ASTM
primary 'Zhurnal Strukturnoi Khimii (Issue-No. from 1981)' 1965 6 60 63 ZSTKAI
loop_
_publ_author_name
'Gladyshevskii, E.I.'
'Kuz'ma, Yu.B.'
_cell_length_a 6.189
_cell_length_b 6.189
_cell_length_c 5.053
_cell_angle_alpha 90.
_cell_angle_beta 90.
_cell_angle_gamma 90.
_cell_volume 193.55
_cell_formula_units_Z 2
_symmetry_space_group_name_H-M 'P 4/m c c'
_symmetry_Int_Tables_number 124
loop_
_symmetry_equiv_pos_site_id
_symmetry_equiv_pos_as_xyz
1 'y, x, -z+1/2'
2 '-y, -x, -z+1/2'
3 '-x, y, -z+1/2'
4 'x, -y, -z+1/2'
5 '-y, x, -z'
6 'y, -x, -z'
7 'x, y, -z'
8 '-x, -y, -z'
9 '-y, -x, z+1/2'
10 'y, x, z+1/2'
11 'x, -y, z+1/2'
12 '-x, y, z+1/2'
13 'y, -x, z'
14 '-y, x, z'
15 '-x, -y, z'
16 'x, y, z'
loop_
_atom_type_symbol
_atom_type_oxidation_number
Nb0+ 0
Co0+ 0
Si0+ 0
loop_
_atom_site_label
_atom_site_type_symbol
_atom_site_symmetry_multiplicity
_atom_site_Wyckoff_symbol
_atom_site_fract_x
_atom_site_fract_y
_atom_site_fract_z
_atom_site_B_iso_or_equiv
_atom_site_occupancy
_atom_site_attached_hydrogens
Nb1 Nb0+ 8 m 0.162 0.662 0 . 1. 0
Co1 Co0+ 2 a 0 0 0.25 . 1. 0
Si1 Si0+ 2 c 0.5 0.5 0.25 . 1. 0
#End of TTdata_43233-ICSD