
#(C) 2017 by FIZ Karlsruhe - Leibniz Institute for Information Infrastructure.  All rights reserved.
data_43238-ICSD
_database_code_ICSD 43238
_audit_creation_date 2000-07-15
_audit_update_record 2013-02-01
_chemical_name_systematic 'Molybdenum phosphide (3/1)'
_chemical_formula_structural 'Mo3 P'
_chemical_formula_sum 'Mo3 P1'
_chemical_name_structure_type V3S
_exptl_crystal_density_diffrn 9.15
_publ_section_title 'The crystal structure of Mo3 P'
loop_
_citation_id
_citation_journal_full
_citation_year
_citation_journal_volume
_citation_page_first
_citation_page_last
_citation_journal_id_ASTM
primary 'Acta Chemica Scandinavica (1-27,1973-42,1988)' 1965 19 760 762 ACSAA4
loop_
_publ_author_name
'Sellberg, B.'
'Rundqvist, S.'
_cell_length_a 9.794
_cell_length_b 9.794
_cell_length_c 4.827
_cell_angle_alpha 90.
_cell_angle_beta 90.
_cell_angle_gamma 90.
_cell_volume 463.02
_cell_formula_units_Z 8
_symmetry_space_group_name_H-M 'I -4 2 m'
_symmetry_Int_Tables_number 121
_refine_ls_R_factor_all 0.057
loop_
_symmetry_equiv_pos_site_id
_symmetry_equiv_pos_as_xyz
1 '-y, -x, z'
2 'y, x, z'
3 'y, -x, -z'
4 '-y, x, -z'
5 'x, -y, -z'
6 '-x, y, -z'
7 '-x, -y, z'
8 'x, y, z'
9 '-y+1/2, -x+1/2, z+1/2'
10 'y+1/2, x+1/2, z+1/2'
11 'y+1/2, -x+1/2, -z+1/2'
12 '-y+1/2, x+1/2, -z+1/2'
13 'x+1/2, -y+1/2, -z+1/2'
14 '-x+1/2, y+1/2, -z+1/2'
15 '-x+1/2, -y+1/2, z+1/2'
16 'x+1/2, y+1/2, z+1/2'
loop_
_atom_type_symbol
_atom_type_oxidation_number
Mo0+ 0
P0+ 0
loop_
_atom_site_label
_atom_site_type_symbol
_atom_site_symmetry_multiplicity
_atom_site_Wyckoff_symbol
_atom_site_fract_x
_atom_site_fract_y
_atom_site_fract_z
_atom_site_B_iso_or_equiv
_atom_site_occupancy
_atom_site_attached_hydrogens
Mo1 Mo0+ 8 i 0.0926(2) 0.0926 0.7665(8) 0.31(3) 1. 0
Mo2 Mo0+ 8 i 0.2015(2) 0.2015 0.2660(8) 0.28(3) 1. 0
Mo3 Mo0+ 8 f 0.3550(3) 0 0 0.28(3) 1. 0
P1 P0+ 8 g 0.2911(8) 0 0.5 0.38(7) 1. 0
#End of TTdata_43238-ICSD