
#(C) 2017 by FIZ Karlsruhe - Leibniz Institute for Information Infrastructure.  All rights reserved.
data_43278-ICSD
_database_code_ICSD 43278
_audit_creation_date 2000-07-15
_audit_update_record 2006-10-01
_chemical_name_systematic 'Silver iron(III) telluride'
_chemical_formula_structural 'Ag Fe Te2'
_chemical_formula_sum 'Ag1 Fe1 Te2'
_exptl_crystal_density_diffrn 7.33
_publ_section_title 'The structure of Ag Fe Te2'
loop_
_citation_id
_citation_journal_full
_citation_year
_citation_journal_volume
_citation_page_first
_citation_page_last
_citation_journal_id_ASTM
primary 'Zhurnal Strukturnoi Khimii (Issue-No. from 1981)' 1964 5 246 249 ZSTKAI
loop_
_publ_author_name
'Zaslavskii, A.I.'
'Zhukova, T.B.'
_cell_length_a 7.6
_cell_length_b 7.6
_cell_length_c 5.69
_cell_angle_alpha 90.
_cell_angle_beta 90.
_cell_angle_gamma 120.
_cell_volume 284.62
_cell_formula_units_Z 3
_symmetry_space_group_name_H-M 'P -3 m 1'
_symmetry_Int_Tables_number 164
_refine_ls_R_factor_all 0.17
loop_
_symmetry_equiv_pos_site_id
_symmetry_equiv_pos_as_xyz
1 'x-y, -y, -z'
2 '-x, -x+y, -z'
3 'y, x, -z'
4 'x-y, x, -z'
5 'y, -x+y, -z'
6 '-x, -y, -z'
7 '-x+y, y, z'
8 'x, x-y, z'
9 '-y, -x, z'
10 '-x+y, -x, z'
11 '-y, x-y, z'
12 'x, y, z'
loop_
_atom_type_symbol
_atom_type_oxidation_number
Ag1+ 1
Fe3+ 3
Te2- -2
loop_
_atom_site_label
_atom_site_type_symbol
_atom_site_symmetry_multiplicity
_atom_site_Wyckoff_symbol
_atom_site_fract_x
_atom_site_fract_y
_atom_site_fract_z
_atom_site_B_iso_or_equiv
_atom_site_occupancy
_atom_site_attached_hydrogens
Ag1 Ag1+ 1 a 0 0 0 . 1. 0
Ag2 Ag1+ 2 d 0.3333 0.6667 0.25 . 1. 0
Fe1 Fe3+ 3 f 0.5 0 0.5 . 1. 0
Te1 Te2- 6 i 0.1667 0.8333 0.75 . 1. 0
#End of TTdata_43278-ICSD