
data_43476-ICSD
_database_code_ICSD 43476
_audit_creation_date 2000-07-15
_audit_update_record 2012-08-01
_chemical_name_systematic 'Zirconium aluminum carbide (3/3/5)'
_chemical_formula_structural 'Zr3 Al3 C5'
_chemical_formula_sum 'C5 Al3 Zr3'
_exptl_crystal_density_diffrn 5.14
_cell_length_a 3.346(1)
_cell_length_b 3.346
_cell_length_c 27.6490(60)
_cell_angle_alpha 90.
_cell_angle_beta 90.
_cell_angle_gamma 120.
_cell_volume 268.08
_cell_formula_units_Z 2
_symmetry_space_group_name_H-M 'P 63 m c'
_symmetry_Int_Tables_number 186
_refine_ls_R_factor_all 0.024
loop_
_symmetry_equiv_pos_site_id
_symmetry_equiv_pos_as_xyz
1 '-x, -x+y, z+1/2'
2 'x-y, -y, z+1/2'
3 'y, x, z+1/2'
4 'x-y, x, z+1/2'
5 'y, -x+y, z+1/2'
6 '-x, -y, z+1/2'
7 'x, x-y, z'
8 '-x+y, y, z'
9 '-y, -x, z'
10 '-x+y, -x, z'
11 '-y, x-y, z'
12 'x, y, z'
loop_
_atom_type_symbol
_atom_type_oxidation_number
Zr0+ 0
Al0+ 0
C0+ 0
loop_
_atom_site_label
_atom_site_type_symbol
_atom_site_symmetry_multiplicity
_atom_site_Wyckoff_symbol
_atom_site_fract_x
_atom_site_fract_y
_atom_site_fract_z
_atom_site_B_iso_or_equiv
_atom_site_occupancy
_atom_site_attached_hydrogens
Zr1 Zr0+ 2 b 0.3333 0.6667 0.59551(5) 0.21(6) 1. 0
Zr2 Zr0+ 2 b 0.3333 0.6667 0.90504(5) 0.21(6) 1. 0
Zr3 Zr0+ 2 a 0 0 0 0.22(7) 1. 0
Al1 Al0+ 2 b 0.3333 0.6667 0.1776(2) 0.32(2) 1. 0
Al2 Al0+ 2 b 0.3333 0.6667 0.3236(2) 0.32(2) 1. 0
Al3 Al0+ 2 a 0 0 0.2448(1) 0.29(3) 1. 0
C1 C0+ 2 b 0.3333 0.6667 0.0510(5) 0.32(4) 1. 0
C2 C0+ 2 b 0.3333 0.6667 0.2511(9) 0.10(7) 1. 0
C3 C0+ 2 b 0.3333 0.6667 0.4510(5) 0.32(4) 1. 0
C4 C0+ 2 a 0 0 0.1508(5) 0.45(6) 1. 0
C5 C0+ 2 a 0 0 0.3472(5) 0.45(6) 1. 0
