
#(C) 2017 by FIZ Karlsruhe - Leibniz Institute for Information Infrastructure.  All rights reserved.
data_43501-ICSD
_database_code_ICSD 43501
_audit_creation_date 2000-07-15
_audit_update_record 2009-02-01
_chemical_name_systematic 'Rhodium antimonide (1/2)'
_chemical_formula_structural 'Rh Sb2'
_chemical_formula_sum 'Rh1 Sb2'
_chemical_name_structure_type FeAsS-CoSb2
_exptl_crystal_density_diffrn 9.
_publ_section_title

;
Structures of compounds in the M Sb2 group: Co Sb2, Rh Sb2, Ir Sb2 and alpha -
Rh Bi2
;
loop_
_citation_id
_citation_journal_full
_citation_year
_citation_journal_volume
_citation_page_first
_citation_page_last
_citation_journal_id_ASTM
primary Kristallografiya 1961 6 872 881 KRISAJ
loop_
_publ_author_name
'Zhdanov, G.S.'
'Kuz'min, R.N.'
_cell_length_a 6.57(2)
_cell_length_b 6.52(2)
_cell_length_c 6.66(2)
_cell_angle_alpha 90.
_cell_angle_beta 116.9
_cell_angle_gamma 90.
_cell_volume 254.42
_cell_formula_units_Z 4
_symmetry_space_group_name_H-M 'P 1 21/c 1'
_symmetry_Int_Tables_number 14
_refine_ls_R_factor_all 0.192
loop_
_symmetry_equiv_pos_site_id
_symmetry_equiv_pos_as_xyz
1 'x, -y+1/2, z+1/2'
2 '-x, -y, -z'
3 '-x, y+1/2, -z+1/2'
4 'x, y, z'
loop_
_atom_type_symbol
_atom_type_oxidation_number
Rh0+ 0
Sb0+ 0
loop_
_atom_site_label
_atom_site_type_symbol
_atom_site_symmetry_multiplicity
_atom_site_Wyckoff_symbol
_atom_site_fract_x
_atom_site_fract_y
_atom_site_fract_z
_atom_site_B_iso_or_equiv
_atom_site_occupancy
_atom_site_attached_hydrogens
Rh1 Rh0+ 4 e 0.277(3) 0.000(3) 0.288(3) . 1. 0
Sb1 Sb0+ 4 e 0.350(3) 0.360(3) 0.173(3) . 1. 0
Sb2 Sb0+ 4 e 0.160(3) 0.633(3) 0.373(3) . 1. 0
#End of TTdata_43501-ICSD