
#(C) 2017 by FIZ Karlsruhe - Leibniz Institute for Information Infrastructure.  All rights reserved.
data_43513-ICSD
_database_code_ICSD 43513
_audit_creation_date 2000-07-15
_audit_update_record 2014-08-01
_chemical_name_systematic 'Palladium boride (5/2)'
_chemical_formula_structural 'Pd5 B2'
_chemical_formula_sum 'B2 Pd5'
_chemical_name_structure_type Pd5B2
_exptl_crystal_density_diffrn 10.69
_publ_section_title 'The crystal structures of Pd5 B2, (Mn5 C2) and Pd3 B'
loop_
_citation_id
_citation_journal_full
_citation_year
_citation_journal_volume
_citation_page_first
_citation_page_last
_citation_journal_id_ASTM
primary 'Acta Chemica Scandinavica (1-27,1973-42,1988)' 1961 15 861 870 ACSAA4
loop_
_publ_author_name
'Stenberg, E.'
_cell_length_a 12.786
_cell_length_b 4.955
_cell_length_c 5.472
_cell_angle_alpha 90.
_cell_angle_beta 97.03
_cell_angle_gamma 90.
_cell_volume 344.07
_cell_formula_units_Z 4
_symmetry_space_group_name_H-M 'C 1 2/c 1'
_symmetry_Int_Tables_number 15
_refine_ls_R_factor_all 0.065
loop_
_symmetry_equiv_pos_site_id
_symmetry_equiv_pos_as_xyz
1 'x, -y, z+1/2'
2 '-x, -y, -z'
3 '-x, y, -z+1/2'
4 'x, y, z'
5 'x+1/2, -y+1/2, z+1/2'
6 '-x+1/2, -y+1/2, -z'
7 '-x+1/2, y+1/2, -z+1/2'
8 'x+1/2, y+1/2, z'
loop_
_atom_type_symbol
_atom_type_oxidation_number
Pd0+ 0
B0+ 0
loop_
_atom_site_label
_atom_site_type_symbol
_atom_site_symmetry_multiplicity
_atom_site_Wyckoff_symbol
_atom_site_fract_x
_atom_site_fract_y
_atom_site_fract_z
_atom_site_B_iso_or_equiv
_atom_site_occupancy
_atom_site_attached_hydrogens
Pd1 Pd0+ 8 f 0.0958(2) 0.0952(3) 0.4213(3) 0.41 1. 0
Pd2 Pd0+ 8 f 0.2127(2) 0.5726(3) 0.3138(3) 0.41 1. 0
Pd3 Pd0+ 4 e 0 0.5727(3) 0.25 0.41 1. 0
B1 B0+ 8 f 0.106 0.311 0.077 0.41 1. 0
#End of TTdata_43513-ICSD