
#(C) 2017 by FIZ Karlsruhe - Leibniz Institute for Information Infrastructure.  All rights reserved.
data_43681-ICSD
_database_code_ICSD 43681
_audit_creation_date 2000-07-15
_audit_update_record 2002-04-01
_chemical_name_systematic 'Platinum germanide (3/1)'
_chemical_formula_structural 'Pt3 Ge'
_chemical_formula_sum 'Ge1 Pt3'
_chemical_name_structure_type Pt3Ge
_exptl_crystal_density_diffrn 18.27
_publ_section_title

;
Zum Aufbau der Systeme Kobalt-germanium, Rhodium-Silizium sowie einiger
verwandter Legierungen
;
loop_
_citation_id
_citation_journal_full
_citation_year
_citation_journal_volume
_citation_page_first
_citation_page_last
_citation_journal_id_ASTM
primary 'Zeitschrift fuer Metallkunde' 1960 51 327 339 ZEMTAE
loop_
_publ_author_name
'Bhan, S.'
'Schubert, K.'
_cell_length_a 7.931
_cell_length_b 7.767
_cell_length_c 7.767
_cell_angle_alpha 90.
_cell_angle_beta 90.06
_cell_angle_gamma 90.
_cell_volume 478.45
_cell_formula_units_Z 8
_symmetry_space_group_name_H-M 'F 1 2/m 1'
_symmetry_Int_Tables_number 12
loop_
_symmetry_equiv_pos_site_id
_symmetry_equiv_pos_as_xyz
1 '-x, -y, -z'
2 'x, -y, z'
3 '-x, y, -z'
4 'x, y, z'
5 '-x, -y+1/2, -z+1/2'
6 'x, -y+1/2, z+1/2'
7 '-x, y+1/2, -z+1/2'
8 'x, y+1/2, z+1/2'
9 '-x+1/2, -y, -z+1/2'
10 'x+1/2, -y, z+1/2'
11 '-x+1/2, y, -z+1/2'
12 'x+1/2, y, z+1/2'
13 '-x+1/2, -y+1/2, -z'
14 'x+1/2, -y+1/2, z'
15 '-x+1/2, y+1/2, -z'
16 'x+1/2, y+1/2, z'
loop_
_atom_type_symbol
_atom_type_oxidation_number
Pt0+ 0
Ge0+ 0
loop_
_atom_site_label
_atom_site_type_symbol
_atom_site_symmetry_multiplicity
_atom_site_Wyckoff_symbol
_atom_site_fract_x
_atom_site_fract_y
_atom_site_fract_z
_atom_site_B_iso_or_equiv
_atom_site_occupancy
_atom_site_attached_hydrogens
Pt1 Pt0+ 8 g 0 0.2 0 . 1. 0
Pt2 Pt0+ 8 h 0.25 0.25 0.25 . 1. 0
Pt3 Pt0+ 8 i 0 0 0.3 . 1. 0
Ge1 Ge0+ 8 i 0.25 0 0 . 1. 0
#End of TTdata_43681-ICSD