
#(C) 2017 by FIZ Karlsruhe - Leibniz Institute for Information Infrastructure.  All rights reserved.
data_43704-ICSD
_database_code_ICSD 43704
_audit_creation_date 2000-07-15
_chemical_name_systematic 'Rhodium phosphide (4/3)'
_chemical_formula_structural 'Rh4 P3'
_chemical_formula_sum 'P3 Rh4'
_exptl_crystal_density_diffrn 8.54
_publ_section_title
'X-ray investigation on rhodium phosphides. The crystal structure of Rh4 P3'
loop_
_citation_id
_citation_journal_full
_citation_year
_citation_journal_volume
_citation_page_first
_citation_page_last
_citation_journal_id_ASTM
primary 'Acta Chemica Scandinavica (1-27,1973-42,1988)' 1960 14 893 902 ACSAA4
loop_
_publ_author_name
'Rundqvist, S.'
'Hede, A.'
_cell_length_a 11.662
_cell_length_b 3.317
_cell_length_c 9.994
_cell_angle_alpha 90.
_cell_angle_beta 90.
_cell_angle_gamma 90.
_cell_volume 386.6
_cell_formula_units_Z 4
_symmetry_space_group_name_H-M 'P n m a'
_symmetry_Int_Tables_number 62
_refine_ls_R_factor_all 0.105
loop_
_symmetry_equiv_pos_site_id
_symmetry_equiv_pos_as_xyz
1 'x+1/2, y, -z+1/2'
2 'x, -y+1/2, z'
3 '-x+1/2, y+1/2, z+1/2'
4 '-x, -y, -z'
5 '-x+1/2, -y, z+1/2'
6 '-x, y+1/2, -z'
7 'x+1/2, -y+1/2, -z+1/2'
8 'x, y, z'
loop_
_atom_type_symbol
_atom_type_oxidation_number
Rh2+ 2.25
P3- -3
loop_
_atom_site_label
_atom_site_type_symbol
_atom_site_symmetry_multiplicity
_atom_site_Wyckoff_symbol
_atom_site_fract_x
_atom_site_fract_y
_atom_site_fract_z
_atom_site_B_iso_or_equiv
_atom_site_occupancy
_atom_site_attached_hydrogens
Rh1 Rh2+ 4 c 0.0270(2) 0.25 0.1172(2) 0.2 1. 0
Rh2 Rh2+ 4 c 0.2717(2) 0.25 0.5696(2) 0.2 1. 0
Rh3 Rh2+ 4 c 0.0647(2) 0.25 0.4059(2) 0.2 1. 0
Rh4 Rh2+ 4 c 0.2945(2) 0.25 0.2911(2) 0.2 1. 0
P1 P3- 4 c 0.3763(6) 0.25 0.7616(7) 0.2 1. 0
P2 P3- 4 c 0.1273(6) 0.25 0.9212(7) 0.2 1. 0
P3 P3- 4 c 0.3704(6) 0.25 0.0792(7) 0.2 1. 0
#End of TTdata_43704-ICSD