
#(C) 2017 by FIZ Karlsruhe - Leibniz Institute for Information Infrastructure.  All rights reserved.
data_43844-ICSD
_database_code_ICSD 43844
_audit_creation_date 2000-07-15
_audit_update_record 2013-08-01
_chemical_name_systematic 'Aluminum ruthenium boride (3/4/2)'
_chemical_formula_structural 'Al3 Ru4 B2'
_chemical_formula_sum 'Al3 B2 Ru4'
_chemical_name_structure_type Al3Ru4B2
_exptl_crystal_density_diffrn 7.92
_publ_section_title
'Die Kristallstrukturen der ternaeren Boride Al2 Ru3 B2 und Al3 Ru B2'
loop_
_citation_id
_citation_journal_full
_citation_year
_citation_journal_volume
_citation_page_first
_citation_page_last
_citation_journal_id_ASTM
primary

;
Zeitschrift fuer Kristallographie, Kristallgeometrie, Kristallphysik,
Kristallchemie (-144,1977)
; 1986 174 109 110 ZEKGAX
loop_
_publ_author_name
'Jung, W.'
'Schweitzer, K.'
_cell_length_a 8.504(1)
_cell_length_b 8.504
_cell_length_c 2.939(1)
_cell_angle_alpha 90.
_cell_angle_beta 90.
_cell_angle_gamma 90.
_cell_volume 212.54
_cell_formula_units_Z 2
_symmetry_space_group_name_H-M 'P 4/m m m'
_symmetry_Int_Tables_number 123
_refine_ls_R_factor_all 0.033
loop_
_symmetry_equiv_pos_site_id
_symmetry_equiv_pos_as_xyz
1 'y, x, -z'
2 '-y, -x, -z'
3 '-y, x, -z'
4 'y, -x, -z'
5 '-x, y, -z'
6 'x, -y, -z'
7 'x, y, -z'
8 '-x, -y, -z'
9 '-y, -x, z'
10 'y, x, z'
11 'y, -x, z'
12 '-y, x, z'
13 'x, -y, z'
14 '-x, y, z'
15 '-x, -y, z'
16 'x, y, z'
loop_
_atom_type_symbol
_atom_type_oxidation_number
Al0+ 0
Ru0+ 0
B0+ 0
loop_
_atom_site_label
_atom_site_type_symbol
_atom_site_symmetry_multiplicity
_atom_site_Wyckoff_symbol
_atom_site_fract_x
_atom_site_fract_y
_atom_site_fract_z
_atom_site_B_iso_or_equiv
_atom_site_occupancy
_atom_site_attached_hydrogens
Al1 Al0+ 1 b 0 0 0.5 . 1. 0
Al2 Al0+ 1 d 0.5 0.5 0.5 . 1. 0
Al3 Al0+ 4 m 0.3467 0 0.5 . 1. 0
Ru1 Ru0+ 4 j 0.8241 0.8241 0 . 1. 0
Ru2 Ru0+ 4 n 0.754 0.5 0 . 1. 0
B1 B0+ 4 k 0.306 0.306 0.5 . 1. 0
#End of TTdata_43844-ICSD