
#(C) 2017 by FIZ Karlsruhe - Leibniz Institute for Information Infrastructure.  All rights reserved.
data_4418-ICSD
_database_code_ICSD 4418
_audit_creation_date 1980-01-01
_audit_update_record 1987-09-18
_chemical_name_systematic 'Distrontium lead(IV) oxide'
_chemical_formula_structural 'Sr2 Pb O4'
_chemical_formula_sum 'O4 Pb1 Sr2'
_chemical_name_structure_type Na2MnCl4
_exptl_crystal_density_diffrn 6.82
_publ_section_title 'Die Kristallstruktur der Verbindungen vom Sr2 Pb O4-Typ'
loop_
_citation_id
_citation_journal_full
_citation_year
_citation_journal_volume
_citation_page_first
_citation_page_last
_citation_journal_id_ASTM
primary 'Zeitschrift fuer Anorganische und Allgemeine Chemie (1950) (DE)' 1969
371 237 247 ZAACAB
loop_
_publ_author_name
'Troemel, M.'
_cell_length_a 6.159(1)
_cell_length_b 10.078(2)
_cell_length_c 3.502(1)
_cell_angle_alpha 90.
_cell_angle_beta 90.
_cell_angle_gamma 90.
_cell_volume 217.37
_cell_formula_units_Z 2
_symmetry_space_group_name_H-M 'P b a m'
_symmetry_Int_Tables_number 55
_refine_ls_R_factor_all 0.056
loop_
_symmetry_equiv_pos_site_id
_symmetry_equiv_pos_as_xyz
1 'x+1/2, -y+1/2, z'
2 '-x+1/2, y+1/2, z'
3 'x, y, -z'
4 '-x, -y, -z'
5 '-x+1/2, y+1/2, -z'
6 'x+1/2, -y+1/2, -z'
7 '-x, -y, z'
8 'x, y, z'
loop_
_atom_type_symbol
_atom_type_oxidation_number
Sr2+ 2
Pb4+ 4
O2- -2
loop_
_atom_site_label
_atom_site_type_symbol
_atom_site_symmetry_multiplicity
_atom_site_Wyckoff_symbol
_atom_site_fract_x
_atom_site_fract_y
_atom_site_fract_z
_atom_site_B_iso_or_equiv
_atom_site_occupancy
_atom_site_attached_hydrogens
Sr1 Sr2+ 4 h 0.077(2) 0.319(1) 0.5 . 1. 0
Pb1 Pb4+ 2 a 0 0 0 . 1. 0
O1 O2- 4 h 0.22(2) 0.05(1) 0.5 . 1. 0
O2 O2- 4 g 0.36(1) 0.31(1) 0 . 1. 0
#End of TTdata_4418-ICSD