
#(C) 2017 by FIZ Karlsruhe - Leibniz Institute for Information Infrastructure.  All rights reserved.
data_44424-ICSD
_database_code_ICSD 44424
_audit_creation_date 2000-12-16
_audit_update_record 2006-04-01
_chemical_name_systematic 'Scandium iridium boride (1/3/4)'
_chemical_formula_structural 'Sc Ir3 B4'
_chemical_formula_sum 'B4 Ir3 Sc1'
_chemical_name_structure_type HfIr3B4
_exptl_crystal_density_diffrn 12.96
_publ_section_title 'Studies of the (Sc, Zr, Hf) - (Rh, Ir) - B systems'
loop_
_citation_id
_citation_journal_full
_citation_year
_citation_journal_volume
_citation_page_first
_citation_page_last
_citation_journal_id_ASTM
primary 'Journal of the Less-Common Metals' 1979 67 41 50 JCOMAH
loop_
_publ_author_name
'Rogl, P.'
'Nowotny, H.N.'
_cell_length_a 7.576(2)
_cell_length_b 7.576
_cell_length_c 3.442(1)
_cell_angle_alpha 90.
_cell_angle_beta 90.
_cell_angle_gamma 120.
_cell_volume 171.09
_cell_formula_units_Z 2
_symmetry_space_group_name_H-M 'P 63/m'
_symmetry_Int_Tables_number 176
_refine_ls_R_factor_all 0.1
loop_
_symmetry_equiv_pos_site_id
_symmetry_equiv_pos_as_xyz
1 '-x+y, -x, -z+1/2'
2 '-y, x-y, -z+1/2'
3 'x, y, -z+1/2'
4 'x-y, x, -z'
5 'y, -x+y, -z'
6 '-x, -y, -z'
7 'x-y, x, z+1/2'
8 'y, -x+y, z+1/2'
9 '-x, -y, z+1/2'
10 '-x+y, -x, z'
11 '-y, x-y, z'
12 'x, y, z'
loop_
_atom_type_symbol
_atom_type_oxidation_number
Sc0+ 0
Ir0+ 0
B0+ 0
loop_
_atom_site_label
_atom_site_type_symbol
_atom_site_symmetry_multiplicity
_atom_site_Wyckoff_symbol
_atom_site_fract_x
_atom_site_fract_y
_atom_site_fract_z
_atom_site_B_iso_or_equiv
_atom_site_occupancy
_atom_site_attached_hydrogens
Sc1 Sc0+ 2 d 0.6667 0.3333 0.25 .8 1. 0
Ir1 Ir0+ 6 h 0.0753 0.3273 0.25 .5 1. 0
B1 B0+ 2 b 0 0 0 1.3 1. 0
B2 B0+ 6 h 0.406 0.46 0.25 1.1 1. 0
#End of TTdata_44424-ICSD