
#(C) 2017 by FIZ Karlsruhe - Leibniz Institute for Information Infrastructure.  All rights reserved.
data_44480-ICSD
_database_code_ICSD 44480
_audit_creation_date 2000-12-16
_audit_update_record 2017-08-01
_chemical_name_systematic 'Copper antimonide (10/3) - delta''
_chemical_formula_structural 'Cu10 Sb3'
_chemical_formula_sum 'Cu10 Sb3'
_exptl_crystal_density_diffrn 8.87
_publ_section_title 'Strukturuntersuchungen im System Kupfer-Antimon'
loop_
_citation_id
_citation_journal_full
_citation_year
_citation_journal_volume
_citation_page_first
_citation_page_last
_citation_journal_id_ASTM
primary 'Zeitschrift fuer Metallkunde' 1958 49 124 133 ZEMTAE
loop_
_publ_author_name
'Guenzel, Eberhard'
'Schubert, Konrad'
_cell_length_a 9.92
_cell_length_b 9.92
_cell_length_c 4.397
_cell_angle_alpha 90.
_cell_angle_beta 90.
_cell_angle_gamma 120.
_cell_volume 374.72
_cell_formula_units_Z 2
_symmetry_space_group_name_H-M 'P -3'
_symmetry_Int_Tables_number 147
loop_
_symmetry_equiv_pos_site_id
_symmetry_equiv_pos_as_xyz
1 'x-y, x, -z'
2 'y, -x+y, -z'
3 '-x, -y, -z'
4 '-x+y, -x, z'
5 '-y, x-y, z'
6 'x, y, z'
loop_
_atom_type_symbol
_atom_type_oxidation_number
Cu0+ 0.9
Sb3- -3
loop_
_atom_site_label
_atom_site_type_symbol
_atom_site_symmetry_multiplicity
_atom_site_Wyckoff_symbol
_atom_site_fract_x
_atom_site_fract_y
_atom_site_fract_z
_atom_site_B_iso_or_equiv
_atom_site_occupancy
_atom_site_attached_hydrogens
Cu1 Cu0+ 6 g 0.113 0.169 0.25 . 1. 0
Cu2 Cu0+ 6 g 0.444 0.415 0.25 . 1. 0
Cu3 Cu0+ 6 g 0.211 0.505 0.25 . 1. 0
Cu4 Cu0+ 2 d 0.3333 0.6667 0.75 . 1. 0
Sb1 Sb3- 6 g 0.363 0.104 0.25 . 1. 0
#End of TTdata_44480-ICSD