
#(C) 2017 by FIZ Karlsruhe - Leibniz Institute for Information Infrastructure.  All rights reserved.
data_44646-ICSD
_database_code_ICSD 44646
_audit_creation_date 2000-12-16
_audit_update_record 2011-08-01
_chemical_name_systematic 'Indium selenide (2/1)'
_chemical_formula_structural 'In2 Se'
_chemical_formula_sum 'In2 Se1'
_chemical_name_structure_type TiAs2
_exptl_crystal_density_diffrn 5.36
_publ_section_title

;
Preliminary electron-diffraction study of the structure of the semiconducting
compound In2 Se
;
loop_
_citation_id
_citation_journal_full
_citation_year
_citation_journal_volume
_citation_page_first
_citation_page_last
_citation_journal_id_ASTM
primary Kristallografiya 1965 10 407 409 KRISAJ
loop_
_publ_author_name
'Man, L.I.'
'Semiletov, S.A.'
_cell_length_a 15.24
_cell_length_b 12.32
_cell_length_c 4.075
_cell_angle_alpha 90.
_cell_angle_beta 90.
_cell_angle_gamma 90.
_cell_volume 765.11
_cell_formula_units_Z 8
_symmetry_space_group_name_H-M 'P n n m'
_symmetry_Int_Tables_number 58
loop_
_symmetry_equiv_pos_site_id
_symmetry_equiv_pos_as_xyz
1 'x+1/2, -y+1/2, z+1/2'
2 '-x+1/2, y+1/2, z+1/2'
3 'x, y, -z'
4 '-x, -y, -z'
5 '-x+1/2, y+1/2, -z+1/2'
6 'x+1/2, -y+1/2, -z+1/2'
7 '-x, -y, z'
8 'x, y, z'
loop_
_atom_type_symbol
_atom_type_oxidation_number
In0+ 0
Se0+ 0
loop_
_atom_site_label
_atom_site_type_symbol
_atom_site_symmetry_multiplicity
_atom_site_Wyckoff_symbol
_atom_site_fract_x
_atom_site_fract_y
_atom_site_fract_z
_atom_site_B_iso_or_equiv
_atom_site_occupancy
_atom_site_attached_hydrogens
In1 In0+ 4 g 0.033 0.153 0 . 1. 0
In2 In0+ 4 g 0.366 0.153 0 . 1. 0
In3 In0+ 4 g 0.7 0.153 0 . 1. 0
In4 In0+ 4 g 0.341 0.383 0 . 1. 0
Se1 Se0+ 4 g 0.197 0.081 0 . 1. 0
Se2 Se0+ 4 g 0.53 0.081 0 . 1. 0
#End of TTdata_44646-ICSD