
data_44729-ICSD
_database_code_ICSD 44729
_audit_creation_date 2000-12-16
_audit_update_record 2009-02-01
_chemical_name_systematic 'Iron carbide (4/1)'
_chemical_formula_structural 'Fe4 C'
_chemical_formula_sum 'C1 Fe4'
_exptl_crystal_density_diffrn 6.7
_cell_length_a 3.878(2)
_cell_length_b 3.878
_cell_length_c 3.878
_cell_angle_alpha 90.
_cell_angle_beta 90.
_cell_angle_gamma 90.
_cell_volume 58.32
_cell_formula_units_Z 1
_symmetry_space_group_name_H-M 'P -4 3 m'
_symmetry_Int_Tables_number 215
_refine_ls_R_factor_all 0.28
loop_
_symmetry_equiv_pos_site_id
_symmetry_equiv_pos_as_xyz
1 '-z, -y, x'
2 '-y, -x, z'
3 '-x, -z, y'
4 '-z, -x, y'
5 '-y, -z, x'
6 '-x, -y, z'
7 '-z, y, -x'
8 '-y, x, -z'
9 '-x, z, -y'
10 '-z, x, -y'
11 '-y, z, -x'
12 '-x, y, -z'
13 'z, -y, -x'
14 'y, -x, -z'
15 'x, -z, -y'
16 'z, -x, -y'
17 'y, -z, -x'
18 'x, -y, -z'
19 'z, y, x'
20 'y, x, z'
21 'x, z, y'
22 'z, x, y'
23 'y, z, x'
24 'x, y, z'
loop_
_atom_type_symbol
_atom_type_oxidation_number
Fe0+ 0
C0+ 0
loop_
_atom_site_label
_atom_site_type_symbol
_atom_site_symmetry_multiplicity
_atom_site_Wyckoff_symbol
_atom_site_fract_x
_atom_site_fract_y
_atom_site_fract_z
_atom_site_B_iso_or_equiv
_atom_site_occupancy
_atom_site_attached_hydrogens
Fe1 Fe0+ 4 e 0.265 0.265 0.265 . 1. 0
C1 C0+ 1 a 0 0 0 . 1. 0
