
data_44987-ICSD
_database_code_ICSD 44987
_audit_creation_date 2000-12-16
_audit_update_record 2016-02-01
_chemical_name_systematic 'Molybdenum carbide (1/1) - eta, HT'
_chemical_formula_structural 'Mo C'
_chemical_formula_sum 'C1 Mo1'
_chemical_name_structure_type MoC1-x
_exptl_crystal_density_diffrn 9.38
_cell_length_a 3.01
_cell_length_b 3.01
_cell_length_c 14.61
_cell_angle_alpha 90.
_cell_angle_beta 90.
_cell_angle_gamma 120.
_cell_volume 114.63
_cell_formula_units_Z 6
_symmetry_space_group_name_H-M 'P 63/m m c'
_symmetry_Int_Tables_number 194
loop_
_symmetry_equiv_pos_site_id
_symmetry_equiv_pos_as_xyz
1 'x, x-y, -z+1/2'
2 '-x+y, y, -z+1/2'
3 '-y, -x, -z+1/2'
4 '-x+y, -x, -z+1/2'
5 '-y, x-y, -z+1/2'
6 'x, y, -z+1/2'
7 '-x, -x+y, z+1/2'
8 'x-y, -y, z+1/2'
9 'y, x, z+1/2'
10 'x-y, x, z+1/2'
11 'y, -x+y, z+1/2'
12 '-x, -y, z+1/2'
13 '-x, -x+y, -z'
14 'x-y, -y, -z'
15 'y, x, -z'
16 'x-y, x, -z'
17 'y, -x+y, -z'
18 '-x, -y, -z'
19 'x, x-y, z'
20 '-x+y, y, z'
21 '-y, -x, z'
22 '-x+y, -x, z'
23 '-y, x-y, z'
24 'x, y, z'
loop_
_atom_type_symbol
_atom_type_oxidation_number
Mo4+ 4
C4- -4
loop_
_atom_site_label
_atom_site_type_symbol
_atom_site_symmetry_multiplicity
_atom_site_Wyckoff_symbol
_atom_site_fract_x
_atom_site_fract_y
_atom_site_fract_z
_atom_site_B_iso_or_equiv
_atom_site_occupancy
_atom_site_attached_hydrogens
Mo1 Mo4+ 2 b 0 0 0.25 . 1. 0
Mo2 Mo4+ 4 f 0.3333 0.6667 0.083 . 1. 0
C1 C4- 2 a 0 0 0 . 1. 0
C2 C4- 4 f 0.3333 0.6667 0.667 . 1. 0
