
#(C) 2017 by FIZ Karlsruhe - Leibniz Institute for Information Infrastructure.  All rights reserved.
data_48004-ICSD
_database_code_ICSD 48004
_audit_creation_date 1983-12-31
_audit_update_record 2012-08-01
_chemical_name_systematic 'Triscandium nickel(III) silicide'
_chemical_formula_structural 'Sc3 Ni Si3'
_chemical_formula_sum 'Ni1 Sc3 Si3'
_chemical_name_structure_type NiSc3Si3
_exptl_crystal_density_diffrn 3.94
_publ_section_title 'Crystal structure of scandium-nickel silicide (Sc3 Ni Si3)'
loop_
_citation_id
_citation_journal_full
_citation_year
_citation_journal_volume
_citation_page_first
_citation_page_last
_citation_journal_id_ASTM
primary Kristallografiya 1983 28 461 464 KRISAJ
loop_
_publ_author_name
'Kotur, B.Ya.'
'Gladyshevskii, E.I.'
_cell_length_a 9.801(3)
_cell_length_b 3.974(2)
_cell_length_c 13.193(4)
_cell_angle_alpha 90.
_cell_angle_beta 114.16(3)
_cell_angle_gamma 90.
_cell_volume 468.85
_cell_formula_units_Z 4
_symmetry_space_group_name_H-M 'C 1 2/m 1'
_symmetry_Int_Tables_number 12
_refine_ls_R_factor_all 0.049
loop_
_symmetry_equiv_pos_site_id
_symmetry_equiv_pos_as_xyz
1 '-x, y, -z'
2 '-x, -y, -z'
3 'x, -y, z'
4 'x, y, z'
5 '-x+1/2, y+1/2, -z'
6 '-x+1/2, -y+1/2, -z'
7 'x+1/2, -y+1/2, z'
8 'x+1/2, y+1/2, z'
loop_
_atom_type_symbol
_atom_type_oxidation_number
Sc0+ 0
Ni0+ 0
Si0+ 0
loop_
_atom_site_label
_atom_site_type_symbol
_atom_site_symmetry_multiplicity
_atom_site_Wyckoff_symbol
_atom_site_fract_x
_atom_site_fract_y
_atom_site_fract_z
_atom_site_B_iso_or_equiv
_atom_site_occupancy
_atom_site_attached_hydrogens
Sc1 Sc0+ 4 i 0.1474(2) 0 0.6212(2) . 1. 0
Sc2 Sc0+ 4 i 0.4832(2) 0 0.2260(2) . 1. 0
Sc3 Sc0+ 4 i 0.3193(2) 0 0.9215(2) . 1. 0
Ni1 Ni0+ 4 i 0.1582(2) 0 0.4024(2) . 1. 0
Si1 Si0+ 4 i 0.4116(3) 0 0.5449(3) . 1. 0
Si2 Si0+ 4 i 0.0419(3) 0 0.9249(3) . 1. 0
Si3 Si0+ 4 i 0.1988(3) 0 0.2351(3) . 1. 0
loop_
_atom_site_aniso_label
_atom_site_aniso_type_symbol
_atom_site_aniso_beta_11
_atom_site_aniso_beta_22
_atom_site_aniso_beta_33
_atom_site_aniso_beta_12
_atom_site_aniso_beta_13
_atom_site_aniso_beta_23
Sc1 Sc0+ 0.0048(2) 0.0240(11) 0.0032(1) 0 0.0024(2) 0
Sc2 Sc0+ 0.0044(2) 0.0352(11) 0.0036(1) 0 0.0030(2) 0
Sc3 Sc0+ 0.0040(2) 0.0292(11) 0.0036(1) 0 0.0028(2) 0
Ni1 Ni0+ 0.0100(1) 0.0388(8) 0.0084(1) 0 0.0074(2) 0
Si1 Si0+ 0.0080(3) 0.0332(17) 0.0044(2) 0 0.0046(4) 0
Si2 Si0+ 0.0048(3) 0.0340(18) 0.0024(2) 0 0.0026(4) 0
Si3 Si0+ 0.0052(3) 0.0352(19) 0.0036(2) 0 0.0018(4) 0
#End of TTdata_48004-ICSD