
#(C) 2017 by FIZ Karlsruhe - Leibniz Institute for Information Infrastructure.  All rights reserved.
data_48016-ICSD
_database_code_ICSD 48016
_audit_creation_date 1986-10-17
_audit_update_record 2016-02-01
_chemical_name_systematic 'Zinc iodide'
_chemical_formula_structural 'Zn I2'
_chemical_formula_sum 'I2 Zn1'
_chemical_name_structure_type CdI2
_exptl_crystal_density_diffrn 5.18
_publ_section_title

;
Determining the crystal structure of hygroscopic substances by Electron
Diffraction (continued): Zn I2
;
loop_
_citation_id
_citation_journal_full
_citation_year
_citation_journal_volume
_citation_page_first
_citation_page_last
_citation_journal_id_ASTM
primary
'Scientific Papers of the Institute of Physical and Chemical Research (Japan)' 1942 39 357 359 SPIPAG
loop_
_publ_author_name
'Yamaguchi, S.'
_cell_length_a 4.25
_cell_length_b 4.25
_cell_length_c 6.54
_cell_angle_alpha 90.
_cell_angle_beta 90.
_cell_angle_gamma 120.
_cell_volume 102.3
_cell_formula_units_Z 1
_symmetry_space_group_name_H-M 'P -3 m 1'
_symmetry_Int_Tables_number 164
loop_
_symmetry_equiv_pos_site_id
_symmetry_equiv_pos_as_xyz
1 'x-y, -y, -z'
2 '-x, -x+y, -z'
3 'y, x, -z'
4 'x-y, x, -z'
5 'y, -x+y, -z'
6 '-x, -y, -z'
7 '-x+y, y, z'
8 'x, x-y, z'
9 '-y, -x, z'
10 '-x+y, -x, z'
11 '-y, x-y, z'
12 'x, y, z'
loop_
_atom_type_symbol
_atom_type_oxidation_number
Zn2+ 2
I1- -1
loop_
_atom_site_label
_atom_site_type_symbol
_atom_site_symmetry_multiplicity
_atom_site_Wyckoff_symbol
_atom_site_fract_x
_atom_site_fract_y
_atom_site_fract_z
_atom_site_B_iso_or_equiv
_atom_site_occupancy
_atom_site_attached_hydrogens
Zn1 Zn2+ 1 a 0 0 0 . 1. 0
I1 I1- 2 d 0.3333 0.6667 0.25 . 1. 0
#End of TTdata_48016-ICSD