
data_49739-ICSD
_database_code_ICSD 49739
_audit_creation_date 1986-04-14
_audit_update_record 2012-02-01
_chemical_name_systematic 'Cesium trithiotitanate'
_chemical_formula_structural 'Cs2 Ti S3'
_chemical_formula_sum 'Cs2 S3 Ti1'
_chemical_name_structure_type Na2SiO3
_exptl_crystal_density_diffrn 3.67
_cell_length_a 12.518
_cell_length_b 9.036
_cell_length_c 6.55
_cell_angle_alpha 90.
_cell_angle_beta 90.
_cell_angle_gamma 90.
_cell_volume 740.89
_cell_formula_units_Z 4
_symmetry_space_group_name_H-M 'C m c 21'
_symmetry_Int_Tables_number 36
_refine_ls_R_factor_all 0.057
loop_
_symmetry_equiv_pos_site_id
_symmetry_equiv_pos_as_xyz
1 'x, -y, z+1/2'
2 '-x, -y, z+1/2'
3 '-x, y, z'
4 'x, y, z'
5 'x+1/2, -y+1/2, z+1/2'
6 '-x+1/2, -y+1/2, z+1/2'
7 '-x+1/2, y+1/2, z'
8 'x+1/2, y+1/2, z'
loop_
_atom_type_symbol
_atom_type_oxidation_number
Cs1+ 1
Ti4+ 4
S2- -2
loop_
_atom_site_label
_atom_site_type_symbol
_atom_site_symmetry_multiplicity
_atom_site_Wyckoff_symbol
_atom_site_fract_x
_atom_site_fract_y
_atom_site_fract_z
_atom_site_B_iso_or_equiv
_atom_site_occupancy
_atom_site_attached_hydrogens
Cs1 Cs1+ 8 b 0.1560(1) 0.1611(1) 0.262(1) . 1. 0
Ti1 Ti4+ 4 a 0 0.5775(5) 0.255(2) . 1. 0
S1 S2- 8 b 0.3711(3) 0.008(1) 0 . 1. 0
S2 S2- 4 a 0 0.8245(7) 0.258(3) . 1. 0
loop_
_atom_site_aniso_label
_atom_site_aniso_type_symbol
_atom_site_aniso_U_11
_atom_site_aniso_U_22
_atom_site_aniso_U_33
_atom_site_aniso_U_12
_atom_site_aniso_U_13
_atom_site_aniso_U_23
Cs1 Cs1+ 0.0259(9) 0.0284(5) 0.0287(6) 0.0060(5) 0.000(1) 0.000(1)
Ti1 Ti4+ 0.017(1) 0.020(1) 0.010(2) 0 0 0.013(4)
S1 S2- 0.015(1) 0.022(2) 0.007(2) 0.001(3) 0.003(2) 0.005(2)
S2 S2- 0.039(3) 0.019(2) 0.028(3) 0 0 -.009(7)
