
#(C) 2017 by FIZ Karlsruhe - Leibniz Institute for Information Infrastructure.  All rights reserved.
data_49751-ICSD
_database_code_ICSD 49751
_audit_creation_date 1986-04-14
_chemical_name_systematic 'Barium tetratelluridosilicate'
_chemical_formula_structural 'Ba2 Si Te4'
_chemical_formula_sum 'Ba2 Si1 Te4'
_chemical_name_structure_type K2ZnBr4
_exptl_crystal_density_diffrn 5.2
_publ_section_title
'Darstellung und Struktur der Verbindungen Ba2 Si Te4 und Ba2 Si Se4'
loop_
_citation_id
_citation_journal_full
_citation_year
_citation_journal_volume
_citation_page_first
_citation_page_last
_citation_journal_id_ASTM
primary 'Zeitschrift fuer Anorganische und Allgemeine Chemie (1950) (DE)' 1985
524 83 89 ZAACAB
loop_
_publ_author_name
'Brinkmann, C.'
'Eisenmann, B.'
'Schaefer, H.'
_cell_length_a 9.650(5)
_cell_length_b 7.626(3)
_cell_length_c 7.466(3)
_cell_angle_alpha 90.
_cell_angle_beta 108.9(1)
_cell_angle_gamma 90.
_cell_volume 519.81
_cell_formula_units_Z 2
_symmetry_space_group_name_H-M 'P 1 21/m 1'
_symmetry_Int_Tables_number 11
_refine_ls_R_factor_all 0.059
loop_
_symmetry_equiv_pos_site_id
_symmetry_equiv_pos_as_xyz
1 'x, -y+1/2, z'
2 '-x, -y, -z'
3 '-x, y+1/2, -z'
4 'x, y, z'
loop_
_atom_type_symbol
_atom_type_oxidation_number
Ba2+ 2
Te2- -2
Si4+ 4
loop_
_atom_site_label
_atom_site_type_symbol
_atom_site_symmetry_multiplicity
_atom_site_Wyckoff_symbol
_atom_site_fract_x
_atom_site_fract_y
_atom_site_fract_z
_atom_site_B_iso_or_equiv
_atom_site_occupancy
_atom_site_attached_hydrogens
Ba1 Ba2+ 2 e 0.5486(1) 0.25 0.2152(2) . 1. 0
Ba2 Ba2+ 2 e 0.0753(1) 0.25 0.2788(2) . 1. 0
Te1 Te2- 2 e 0.4368(2) 0.25 0.6265(2) . 1. 0
Te2 Te2- 2 e 0.8715(2) 0.25 0.5906(2) . 1. 0
Te3 Te2- 4 f 0.2298(1) 0.4932(1) 0.9906(1) . 1. 0
Si1 Si4+ 2 e 0.7081(6) 0.25 0.7911(8) . 1. 0
loop_
_atom_site_aniso_label
_atom_site_aniso_type_symbol
_atom_site_aniso_U_11
_atom_site_aniso_U_22
_atom_site_aniso_U_33
_atom_site_aniso_U_12
_atom_site_aniso_U_13
_atom_site_aniso_U_23
Ba1 Ba2+ 0.0142(6) 0.0211(6) 0.0218(6) 0 0.0063(5) 0
Ba2 Ba2+ 0.0159(6) 0.0210(7) 0.0251(7) 0 0.0086(5) 0
Te1 Te2- 0.0140(7) 0.0379(10) 0.0271(8) 0 0.0065(6) 0
Te2 Te2- 0.0167(7) 0.0368(9) 0.0184(7) 0 0.0091(5) 0
Te3 Te2- 0.0218(5) 0.0049(4) 0.0221(5) -.0003(3) 0.0072(4) -.0014(3)
Si1 Si4+ 0.0161(25) 0.0091(24) 0.0119(23) 0 0.007(2) 0
#End of TTdata_49751-ICSD