
#(C) 2017 by FIZ Karlsruhe - Leibniz Institute for Information Infrastructure.  All rights reserved.
data_49750-ICSD
_database_code_ICSD 49750
_audit_creation_date 1986-04-14
_chemical_name_systematic 'Barium tetraselenosilicate'
_chemical_formula_structural 'Ba2 Si Se4'
_chemical_formula_sum 'Ba2 Se4 Si1'
_chemical_name_structure_type K2ZnBr4
_exptl_crystal_density_diffrn 4.9
_publ_section_title
'Darstellung und Struktur der Verbindungen Ba2 Si Te4 und Ba2 Si Se'
loop_
_citation_id
_citation_journal_full
_citation_year
_citation_journal_volume
_citation_page_first
_citation_page_last
_citation_journal_id_ASTM
primary 'Zeitschrift fuer Anorganische und Allgemeine Chemie (1950) (DE)' 1985
524 83 89 ZAACAB
loop_
_publ_author_name
'Brinkmann, C.'
'Eisenmann, B.'
'Schaefer, H.'
_cell_length_a 9.184(5)
_cell_length_b 7.033(3)
_cell_length_c 6.872(3)
_cell_angle_alpha 90.
_cell_angle_beta 109.2(1)
_cell_angle_gamma 90.
_cell_volume 419.18
_cell_formula_units_Z 2
_symmetry_space_group_name_H-M 'P 1 21/m 1'
_symmetry_Int_Tables_number 11
_refine_ls_R_factor_all 0.071
loop_
_symmetry_equiv_pos_site_id
_symmetry_equiv_pos_as_xyz
1 'x, -y+1/2, z'
2 '-x, -y, -z'
3 '-x, y+1/2, -z'
4 'x, y, z'
loop_
_atom_type_symbol
_atom_type_oxidation_number
Ba2+ 2
Se2- -2
Si4+ 4
loop_
_atom_site_label
_atom_site_type_symbol
_atom_site_symmetry_multiplicity
_atom_site_Wyckoff_symbol
_atom_site_fract_x
_atom_site_fract_y
_atom_site_fract_z
_atom_site_B_iso_or_equiv
_atom_site_occupancy
_atom_site_attached_hydrogens
Ba1 Ba2+ 2 e 0.5412(2) 0.25 0.2082(2) . 1. 0
Ba2 Ba2+ 2 e 0.0807(2) 0.25 0.2955(2) . 1. 0
Se1 Se2- 2 e 0.4541(3) 0.25 0.6441(4) . 1. 0
Se2 Se2- 2 e 0.8583(3) 0.25 0.5885(2) . 1. 0
Se3 Se2- 4 f 0.2239(2) 0.4957(2) 0.9902(2) . 1. 0
Si1 Si4+ 2 e 0.7127(7) 0.25 0.800(1) . 1. 0
loop_
_atom_site_aniso_label
_atom_site_aniso_type_symbol
_atom_site_aniso_U_11
_atom_site_aniso_U_22
_atom_site_aniso_U_33
_atom_site_aniso_U_12
_atom_site_aniso_U_13
_atom_site_aniso_U_23
Ba1 Ba2+ 0.0134(6) 0.0160(6) 0.0177(6) 0 0.0039(5) 0
Ba2 Ba2+ 0.0167(6) 0.0150(6) 0.0212(7) 0 0.0058(2) 0
Se1 Se2- 0.0139(10) 0.0225(12) 0.0220(12) 0 0.0038(9) 0
Se2 Se2- 0.0162(10) 0.0237(12) 0.0192(11) 0 0.0068(9) 0
Se3 Se2- 0.0185(7) 0.0085(7) 0.0201(7) 0.0004(6) 0.0055(6) -.0006(6)
Si1 Si4+ 0.0137(26) 0.0083(25) 0.0171(28) 0 0.0038(22) 0
#End of TTdata_49750-ICSD