
#(C) 2017 by FIZ Karlsruhe - Leibniz Institute for Information Infrastructure.  All rights reserved.
data_50158-ICSD
_database_code_ICSD 50158
_audit_creation_date 1999-01-19
_audit_update_record 2011-02-01
_chemical_name_systematic 'Barium dirhodium silicide'
_chemical_formula_structural 'Ba Rh2 Si2'
_chemical_formula_sum 'Ba1 Rh2 Si2'
_chemical_name_structure_type BaRh2Si2
_exptl_crystal_density_diffrn 6.52
_publ_section_title

;
Die isotypen Verbindungen Ba Rh2 Si2, Ba Ir2 Si2 und Ba Pt2 Ga2 - eine
monokline Verzerrungsvariante der Ca Rh2 B2-Struktur
;
loop_
_citation_id
_citation_journal_full
_citation_year
_citation_journal_volume
_citation_page_first
_citation_page_last
_citation_journal_id_ASTM
primary 'Zeitschrift fuer Anorganische und Allgemeine Chemie (1950) (DE)' 1997
623 1561 1566 ZAACAB
loop_
_publ_author_name
'Langen, D.'
'Schoolaert, S.'
'Ploss, H.'
'Jung, W.'
_cell_length_a 7.918(1)
_cell_length_b 6.637(1)
_cell_length_c 7.668(1)
_cell_angle_alpha 90.
_cell_angle_beta 91.2(1)
_cell_angle_gamma 90.
_cell_volume 402.88
_cell_formula_units_Z 4
_symmetry_space_group_name_H-M 'P 1 21/c 1'
_symmetry_Int_Tables_number 14
_refine_ls_R_factor_all 0.024
loop_
_symmetry_equiv_pos_site_id
_symmetry_equiv_pos_as_xyz
1 'x, -y+1/2, z+1/2'
2 '-x, -y, -z'
3 '-x, y+1/2, -z+1/2'
4 'x, y, z'
loop_
_atom_type_symbol
_atom_type_oxidation_number
Ba2+ 2
Rh3+ 3
Si4- -4
loop_
_atom_site_label
_atom_site_type_symbol
_atom_site_symmetry_multiplicity
_atom_site_Wyckoff_symbol
_atom_site_fract_x
_atom_site_fract_y
_atom_site_fract_z
_atom_site_B_iso_or_equiv
_atom_site_occupancy
_atom_site_attached_hydrogens
Ba1 Ba2+ 4 e 0.23561(2) 0.88454(3) 0.49666(2) . 1. 0
Rh1 Rh3+ 4 e 0.85991(3) 0.66862(4) 0.32850(3) . 1. 0
Rh2 Rh3+ 4 e 0.62227(3) 0.89724(3) 0.11201(3) . 1. 0
Si1 Si4- 4 e 0.5630(1) 0.8489(1) 0.8138(1) . 1. 0
Si2 Si4- 4 e 0.9253(1) 0.9223(1) 0.1274(1) . 1. 0
loop_
_atom_site_aniso_label
_atom_site_aniso_type_symbol
_atom_site_aniso_U_11
_atom_site_aniso_U_22
_atom_site_aniso_U_33
_atom_site_aniso_U_12
_atom_site_aniso_U_13
_atom_site_aniso_U_23
Ba1 Ba2+ 0.0080(1) 0.0069(1) 0.0080(1) -0.0003(1) 0.0002(1) -0.0008(1)
Rh1 Rh3+ 0.0055(1) 0.0062(1) 0.0067(1) 0.0003(1) -0.0003(1) 0.0010(1)
Rh2 Rh3+ 0.0053(1) 0.0058(1) 0.0055(1) 0.0006(1) -0.0002(1) 0.0004(1)
Si1 Si4- 0.0046(3) 0.0067(3) 0.0048(3) 0.0006(3) 0.0002(2) -0.0016(3)
Si2 Si4- 0.0044(3) 0.0051(3) 0.0044(3) -0.0010(2) 0.0002(2) 0.0006(3)
#End of TTdata_50158-ICSD