
data_50198-ICSD
_database_code_ICSD 50198
_audit_creation_date 1999-01-19
_chemical_name_systematic 'Bromine(I) oxide'
_chemical_formula_structural 'Br2 O'
_chemical_formula_sum 'Br2 O1'
_exptl_crystal_density_diffrn 4.13
_cell_measurement_temperature 120.
_cell_length_a 3.904(1)
_cell_length_b 6.822(1)
_cell_length_c 10.622(2)
_cell_angle_alpha 90.
_cell_angle_beta 90.
_cell_angle_gamma 90.
_cell_volume 282.9
_cell_formula_units_Z 4
_symmetry_space_group_name_H-M 'P c 21 n'
_symmetry_Int_Tables_number 33
_refine_ls_R_factor_all 0.026
loop_
_symmetry_equiv_pos_site_id
_symmetry_equiv_pos_as_xyz
1 '-x+1/2, y, z+1/2'
2 'x+1/2, y+1/2, -z+1/2'
3 '-x, y+1/2, -z'
4 'x, y, z'
loop_
_atom_type_symbol
_atom_type_oxidation_number
Br1+ 1
O2- -2
loop_
_atom_site_label
_atom_site_type_symbol
_atom_site_symmetry_multiplicity
_atom_site_Wyckoff_symbol
_atom_site_fract_x
_atom_site_fract_y
_atom_site_fract_z
_atom_site_B_iso_or_equiv
_atom_site_occupancy
_atom_site_attached_hydrogens
Br1 Br1+ 4 a 0.6218(1) 0.0002(1) 0.2800(1) . 1. 0
Br2 Br1+ 4 a 0.6592(1) 0.3157(1) 0.4929(1) . 1. 0
O1 O2- 4 a 0.8648(11) 0.2060(6) 0.3499(5) . 1. 0
loop_
_atom_site_aniso_label
_atom_site_aniso_type_symbol
_atom_site_aniso_U_11
_atom_site_aniso_U_22
_atom_site_aniso_U_33
_atom_site_aniso_U_12
_atom_site_aniso_U_13
_atom_site_aniso_U_23
Br1 Br1+ 0.014(1) 0.011(1) 0.010(1) 0.000(1) 0.001(1) 0.000(1)
Br2 Br1+ 0.014(1) 0.010(1) 0.011(1) 0.001(1) 0.000(1) -.001(1)
O1 O2- 0.015(2) 0.015(2) 0.016(2) -.005(2) 0.006(2) -.002(2)
