
data_50325-ICSD
_database_code_ICSD 50325
_audit_creation_date 1999-11-30
_audit_update_record 2010-08-01
_chemical_name_systematic 'Thallium nitrate(III)'
_chemical_formula_structural 'Tl (N O2)'
_chemical_formula_sum 'N1 O2 Tl1'
_chemical_name_structure_type TlNO2
_exptl_crystal_density_diffrn 6.39
_cell_measurement_temperature 10.
_cell_length_a 5.5490(5)
_cell_length_b 5.5490(5)
_cell_length_c 7.3233(7)
_cell_angle_alpha 90.
_cell_angle_beta 90.
_cell_angle_gamma 120.
_cell_volume 195.28
_cell_formula_units_Z 3
_symmetry_space_group_name_H-M 'P 31 2 1'
_symmetry_Int_Tables_number 152
_refine_ls_R_factor_all 0.052
loop_
_symmetry_equiv_pos_site_id
_symmetry_equiv_pos_as_xyz
1 'x-y, -y, -z+2/3'
2 '-x, -x+y, -z+1/3'
3 'y, x, -z'
4 '-x+y, -x, z+2/3'
5 '-y, x-y, z+1/3'
6 'x, y, z'
loop_
_atom_type_symbol
_atom_type_oxidation_number
Tl1+ 1
N3+ 3
O2- -2
loop_
_atom_site_label
_atom_site_type_symbol
_atom_site_symmetry_multiplicity
_atom_site_Wyckoff_symbol
_atom_site_fract_x
_atom_site_fract_y
_atom_site_fract_z
_atom_site_B_iso_or_equiv
_atom_site_occupancy
_atom_site_attached_hydrogens
Tl1 Tl1+ 3 a 0.2973(9) 0.2973(9) 0 . 1. 0
N1 N3+ 3 b 0.3098(8) 0.3098(8) 0.5 . 1. 0
O1 O2- 6 c 0.3715(11) 0.4940(7) 0.6182(5) . 1. 0
