
#(C) 2017 by FIZ Karlsruhe - Leibniz Institute for Information Infrastructure.  All rights reserved.
data_50725-ICSD
_database_code_ICSD 50725
_audit_creation_date 2000-07-15
_chemical_name_systematic 'Lanthanum antimonide bromide (5/3/1)'
_chemical_formula_structural 'La5 Sb3 Br'
_chemical_formula_sum 'Br1 La5 Sb3'
_chemical_name_structure_type Ga4Ti5
_exptl_crystal_density_diffrn 7.04
_cell_measurement_temperature 296.
_publ_section_title

;
Lanthanum and praseodymium bromide pnictides. A convergence of interstitial
chemistry in cluster halides and intermetallic pnictides
;
loop_
_citation_id
_citation_journal_full
_citation_year
_citation_journal_volume
_citation_page_first
_citation_page_last
_citation_journal_id_ASTM
primary 'Journal of Solid State Chemistry' 1999 144 175 180 JSSCBI
loop_
_publ_author_name
'Jensen, E.A.'
'Hoistad, L.M.'
'Corbett, J.D.'
_cell_length_a 9.602(2)
_cell_length_b 9.602(2)
_cell_length_c 6.7331(3)
_cell_angle_alpha 90.
_cell_angle_beta 90.
_cell_angle_gamma 120.
_cell_volume 537.61
_cell_formula_units_Z 2
_symmetry_space_group_name_H-M 'P 63/m c m'
_symmetry_Int_Tables_number 193
_refine_ls_R_factor_all 0.017
loop_
_symmetry_equiv_pos_site_id
_symmetry_equiv_pos_as_xyz
1 '-x, -x+y, -z+1/2'
2 'x-y, -y, -z+1/2'
3 'y, x, -z+1/2'
4 '-x+y, -x, -z+1/2'
5 '-y, x-y, -z+1/2'
6 'x, y, -z+1/2'
7 'x, x-y, z+1/2'
8 '-x+y, y, z+1/2'
9 '-y, -x, z+1/2'
10 'x-y, x, z+1/2'
11 'y, -x+y, z+1/2'
12 '-x, -y, z+1/2'
13 'x, x-y, -z'
14 '-x+y, y, -z'
15 '-y, -x, -z'
16 'x-y, x, -z'
17 'y, -x+y, -z'
18 '-x, -y, -z'
19 '-x, -x+y, z'
20 'x-y, -y, z'
21 'y, x, z'
22 '-x+y, -x, z'
23 '-y, x-y, z'
24 'x, y, z'
loop_
_atom_type_symbol
_atom_type_oxidation_number
La0+ 0
Sb0+ 0
Br0+ 0
loop_
_atom_site_label
_atom_site_type_symbol
_atom_site_symmetry_multiplicity
_atom_site_Wyckoff_symbol
_atom_site_fract_x
_atom_site_fract_y
_atom_site_fract_z
_atom_site_B_iso_or_equiv
_atom_site_occupancy
_atom_site_attached_hydrogens
La1 La0+ 4 d 0.6667 0.3333 0 . 1. 0
La2 La0+ 6 g 0 0.2744(1) 0.25 . 1. 0
Sb1 Sb0+ 6 g 0.3827(1) 0.3827 0.25 . 1. 0
Br1 Br0+ 2 b 0 0 0 . 1. 0
loop_
_atom_site_aniso_label
_atom_site_aniso_type_symbol
_atom_site_aniso_U_11
_atom_site_aniso_U_22
_atom_site_aniso_U_33
_atom_site_aniso_U_12
_atom_site_aniso_U_13
_atom_site_aniso_U_23
La1 La0+ 0.0060(5) 0.0081(8) 0.0094(5) 0 0 0
La2 La0+ 0.0081(4) 0.0081(4) 0.0056(6) 0 0 0
Sb1 Sb0+ 0.0068(6) 0.0080(8) 0.0083(6) 0 0 0
Br1 Br0+ 0.0112(8) 0.0112(8) 0.010(1) 0 0 0
#End of TTdata_50725-ICSD