
#(C) 2017 by FIZ Karlsruhe - Leibniz Institute for Information Infrastructure.  All rights reserved.
data_51023-ICSD
_database_code_ICSD 51023
_audit_creation_date 2001-07-16
_chemical_name_systematic 'Antimony phyllo-rheno(IV)rhenate(V)'
_chemical_formula_structural 'Sb (Re2 O6)'
_chemical_formula_sum 'O6 Re2 Sb1'
_chemical_name_structure_type Nb2SnO6
_exptl_crystal_density_diffrn 9.06
_cell_measurement_temperature 295.
_publ_section_title

;
Preparation, crystal structure, and electrical resistivity of Sb Re2 O6 with a
Re-Re bond
;
loop_
_citation_id
_citation_journal_full
_citation_year
_citation_journal_volume
_citation_page_first
_citation_page_last
_citation_journal_id_ASTM
primary 'Journal of Solid State Chemistry' 1998 138 245 249 JSSCBI
loop_
_publ_author_name
'Wanatabe, H.'
'Imoto, H.'
'Tanaka, H.'
_cell_length_a 16.0480(20)
_cell_length_b 4.920(1)
_cell_length_c 5.480(2)
_cell_angle_alpha 90.
_cell_angle_beta 91.90(2)
_cell_angle_gamma 90.
_cell_volume 432.44
_cell_formula_units_Z 4
_symmetry_space_group_name_H-M 'C 1 2/c 1'
_symmetry_Int_Tables_number 15
_refine_ls_R_factor_all 0.028
loop_
_symmetry_equiv_pos_site_id
_symmetry_equiv_pos_as_xyz
1 'x, -y, z+1/2'
2 '-x, -y, -z'
3 '-x, y, -z+1/2'
4 'x, y, z'
5 'x+1/2, -y+1/2, z+1/2'
6 '-x+1/2, -y+1/2, -z'
7 '-x+1/2, y+1/2, -z+1/2'
8 'x+1/2, y+1/2, z'
loop_
_atom_type_symbol
_atom_type_oxidation_number
Re4+ 4.5
Sb3+ 3
O2- -2
loop_
_atom_site_label
_atom_site_type_symbol
_atom_site_symmetry_multiplicity
_atom_site_Wyckoff_symbol
_atom_site_fract_x
_atom_site_fract_y
_atom_site_fract_z
_atom_site_B_iso_or_equiv
_atom_site_occupancy
_atom_site_attached_hydrogens
Re1 Re4+ 8 f 0.18044(3) 0.23356(13) -.11194(10) . 1. 0
Sb1 Sb3+ 4 e 0 0.3006(3) 0.25 . 1. 0
O1 O2- 8 f 0.2160(6) 0.474(2) 0.169(2) 0.007(2) 1. 0
O2 O2- 8 f 0.1399(6) -.034(2) 0.109(2) 0.008(2) 1. 0
O3 O2- 8 f 0.0688(6) 0.418(2) -.078(2) 0.008(2) 1. 0
loop_
_atom_site_aniso_label
_atom_site_aniso_type_symbol
_atom_site_aniso_U_11
_atom_site_aniso_U_22
_atom_site_aniso_U_33
_atom_site_aniso_U_12
_atom_site_aniso_U_13
_atom_site_aniso_U_23
Re1 Re4+ 0.0018(2) 0.0017(3) 0.0058(3) 0.0000(2) 0.0016(2) -.0002(2)
Sb1 Sb3+ 0.0042(6) 0.0037(7) 0.0108(6) 0 0.0012(5) 0
#End of TTdata_51023-ICSD