
#(C) 2017 by FIZ Karlsruhe - Leibniz Institute for Information Infrastructure.  All rights reserved.
data_51123-ICSD
_database_code_ICSD 51123
_audit_creation_date 2001-07-16
_audit_update_record 2006-04-01
_chemical_name_systematic 'Lanthanum trithiochromate(III)'
_chemical_formula_structural 'La (Cr S3)'
_chemical_formula_sum 'Cr1 La1 S3'
_chemical_name_structure_type NH4CdCl3/Sn2S3
_exptl_crystal_density_diffrn 4.72
_publ_section_title 'High-pressure synthesis of La M S3 (M = Ti, V, Cr)'
loop_
_citation_id
_citation_journal_full
_citation_year
_citation_journal_volume
_citation_page_first
_citation_page_last
_citation_journal_id_ASTM
primary 'Journal of Solid State Chemistry' 1998 139 233 237 JSSCBI
loop_
_publ_author_name
'Kikkawa, S.'
'Fujii, Y.'
'Miyamoto, Y.'
'Kanamura, F.'
'Meerschaut, A.'
'Lafond, A.'
'Rouxel, A.'
_cell_length_a 7.87(1)
_cell_length_b 3.851(7)
_cell_length_c 13.34(2)
_cell_angle_alpha 90.
_cell_angle_beta 90.
_cell_angle_gamma 90.
_cell_volume 404.3
_cell_formula_units_Z 4
_symmetry_space_group_name_H-M 'P n m a'
_symmetry_Int_Tables_number 62
_refine_ls_R_factor_all 0.04
loop_
_symmetry_equiv_pos_site_id
_symmetry_equiv_pos_as_xyz
1 'x+1/2, y, -z+1/2'
2 'x, -y+1/2, z'
3 '-x+1/2, y+1/2, z+1/2'
4 '-x, -y, -z'
5 '-x+1/2, -y, z+1/2'
6 '-x, y+1/2, -z'
7 'x+1/2, -y+1/2, -z+1/2'
8 'x, y, z'
loop_
_atom_type_symbol
_atom_type_oxidation_number
La3+ 3
Cr3+ 3
S2- -2
loop_
_atom_site_label
_atom_site_type_symbol
_atom_site_symmetry_multiplicity
_atom_site_Wyckoff_symbol
_atom_site_fract_x
_atom_site_fract_y
_atom_site_fract_z
_atom_site_B_iso_or_equiv
_atom_site_occupancy
_atom_site_attached_hydrogens
La1 La3+ 4 c 0.089(2) 0.25 0.171(1) 1.17(8) 1. 0
Cr1 Cr3+ 4 c 0.344(6) 0.25 0.947(2) 1.68(1) 1. 0
S1 S2- 4 c 0.191(6) 0.25 0.793(4) 1.43(5) 1. 0
S2 S2- 4 c 0.327(8) 0.25 0.510(5) 1.73(9) 1. 0
S3 S2- 4 c 0.486(7) 0.25 0.104(4) 1.92(7) 1. 0
#End of TTdata_51123-ICSD