
#(C) 2017 by FIZ Karlsruhe - Leibniz Institute for Information Infrastructure.  All rights reserved.
data_51434-ICSD
_database_code_ICSD 51434
_audit_creation_date 2002-10-01
_audit_update_record 2007-08-01
_chemical_name_systematic 'Scandium rhodium boride (3/5/2)'
_chemical_formula_structural 'Sc3 Rh5 B2'
_chemical_formula_sum 'B2 Rh5 Sc3'
_chemical_name_structure_type Co5Ti3B2
_exptl_crystal_density_diffrn 8.03
_publ_section_title

;
Ternary rhodium borides A3 Rh5 B2 (A = Mg, Sc) and quaternary derivates A2 M
Rh5 B2. Preparation, crystal structure (M = main group and 3 d elements), and
magnetism (M = Mn, Fe)
;
loop_
_citation_id
_citation_journal_full
_citation_year
_citation_journal_volume
_citation_page_first
_citation_page_last
_citation_journal_id_ASTM
primary 'Zeitschrift fuer Anorganische und Allgemeine Chemie (1950) (DE)' 2001
627 523 532 ZAACAB
loop_
_publ_author_name
'Nagelschmitz, E.A.'
'Jung, W.'
'Feiten, R.'
'Mueller, P.'
'Lueken, H.'
_cell_length_a 9.419(1)
_cell_length_b 9.419(1)
_cell_length_c 3.085(1)
_cell_angle_alpha 90.
_cell_angle_beta 90.
_cell_angle_gamma 90.
_cell_volume 273.69
_cell_formula_units_Z 2
_symmetry_space_group_name_H-M 'P 4/m b m'
_symmetry_Int_Tables_number 127
_refine_ls_R_factor_all 0.0249
loop_
_symmetry_equiv_pos_site_id
_symmetry_equiv_pos_as_xyz
1 'y+1/2, x+1/2, -z'
2 '-y+1/2, -x+1/2, -z'
3 '-y, x, -z'
4 'y, -x, -z'
5 'x+1/2, -y+1/2, -z'
6 '-x+1/2, y+1/2, -z'
7 'x, y, -z'
8 '-x, -y, -z'
9 '-y+1/2, -x+1/2, z'
10 'y+1/2, x+1/2, z'
11 'y, -x, z'
12 '-y, x, z'
13 '-x+1/2, y+1/2, z'
14 'x+1/2, -y+1/2, z'
15 '-x, -y, z'
16 'x, y, z'
loop_
_atom_type_symbol
_atom_type_oxidation_number
Rh0+ 0
Sc0+ 0
B0+ 0
Sc0+ 0
loop_
_atom_site_label
_atom_site_type_symbol
_atom_site_symmetry_multiplicity
_atom_site_Wyckoff_symbol
_atom_site_fract_x
_atom_site_fract_y
_atom_site_fract_z
_atom_site_B_iso_or_equiv
_atom_site_occupancy
_atom_site_attached_hydrogens
Rh1 Rh0+ 8 j 0.22230(2) 0.07105(3) 0.5 . 1. 0
Rh2 Rh0+ 2 c 0 0.5 0.5 . 1. 0
Sc1 Sc0+ 4 g 0.32504(6) 0.82504(6) 0 . 1. 0
B1 B0+ 4 g 0.1223(4) 0.6223(4) 0 0.0075(6) 1. 0
Sc2 Sc0+ 2 a 0 0 0 . 1. 0
loop_
_atom_site_aniso_label
_atom_site_aniso_type_symbol
_atom_site_aniso_U_11
_atom_site_aniso_U_22
_atom_site_aniso_U_33
_atom_site_aniso_U_12
_atom_site_aniso_U_13
_atom_site_aniso_U_23
Rh1 Rh0+ 0.0055(1) 0.0069(1) 0.0065(2) -.0002(1) 0 0
Rh2 Rh0+ 0.0057(1) 0.0057(1) 0.0072(2) -.0005(1) 0 0
Sc1 Sc0+ 0.0081(2) 0.0081(2) 0.0061(3) -.0007(20) 0 0
Sc2 Sc0+ 0.0043(2) 0.0043(2) 0.0034(6) 0 0 0
#End of TTdata_51434-ICSD