
data_51698-ICSD
_database_code_ICSD 51698
_audit_creation_date 2003-10-01
_audit_update_record 2016-02-01
_chemical_name_systematic 'Cadmium titanate'
_chemical_formula_structural 'Cd (Ti O3)'
_chemical_formula_sum 'Cd1 O3 Ti1'
_chemical_name_structure_type NaNbO3(oP20)
_exptl_crystal_density_diffrn 6.35
_cell_measurement_temperature 15.
_cell_length_a 5.41511(6)
_cell_length_b 7.60293(8)
_cell_length_c 5.29465(6)
_cell_angle_alpha 90.
_cell_angle_beta 90.
_cell_angle_gamma 90.
_cell_volume 217.98
_cell_formula_units_Z 4
_symmetry_space_group_name_H-M 'P 21 m a'
_symmetry_Int_Tables_number 26
_refine_ls_R_factor_all 0.024
loop_
_symmetry_equiv_pos_site_id
_symmetry_equiv_pos_as_xyz
1 'x+1/2, y, -z'
2 'x+1/2, -y, -z'
3 'x, -y, z'
4 'x, y, z'
loop_
_atom_type_symbol
_atom_type_oxidation_number
Ti4+ 4
Cd2+ 2
O2- -2
loop_
_atom_site_label
_atom_site_type_symbol
_atom_site_symmetry_multiplicity
_atom_site_Wyckoff_symbol
_atom_site_fract_x
_atom_site_fract_y
_atom_site_fract_z
_atom_site_B_iso_or_equiv
_atom_site_occupancy
_atom_site_attached_hydrogens
Ti1 Ti4+ 4 c 0.002(6) 0.251(7) 0.001(4) 0.14(8) 1. 0
Cd1 Cd2+ 2 b 0.5408 0.5 .2566(17) 0.01(3) 1. 0
Cd2 Cd2+ 2 a 0.4593(6) 0 .2398(16) 0.5(3) 1. 0
O1 O2- 2 b -.041(10) 0.5 .148(10) 0.01 1. 0
O2 O2- 2 a 0.013(9) 0 .329(10) 0.01 1. 0
O3 O2- 4 c .274(6) 0.292(5) .449(7) 0.01 1. 0
O4 O2- 4 c 0.733(5) 0.200(5) 0.046(7) 0.01 1. 0
