
data_52345-ICSD
_database_code_ICSD 52345
_audit_creation_date 2003-04-01
_audit_update_record 2005-10-01
_chemical_name_systematic 'Nickel sulfide'
_chemical_formula_structural 'Ni S'
_chemical_formula_sum 'Ni1 S1'
_chemical_name_structure_type NiS
_chemical_name_mineral Millerite
_exptl_crystal_density_diffrn 5.35
_cell_length_a 5.647
_cell_length_b 5.647
_cell_length_c 5.647
_cell_angle_alpha 116.58
_cell_angle_beta 116.58
_cell_angle_gamma 116.58
_cell_volume 84.5
_cell_formula_units_Z 3
_symmetry_space_group_name_H-M 'R 3 m R'
_symmetry_Int_Tables_number 160
loop_
_symmetry_equiv_pos_site_id
_symmetry_equiv_pos_as_xyz
1 'z, y, x'
2 'z, x, y'
3 'x, z, y'
4 'y, z, x'
5 'y, x, z'
6 'x, y, z'
loop_
_atom_type_symbol
_atom_type_oxidation_number
Ni2+ 2
S2- -2
loop_
_atom_site_label
_atom_site_type_symbol
_atom_site_symmetry_multiplicity
_atom_site_Wyckoff_symbol
_atom_site_fract_x
_atom_site_fract_y
_atom_site_fract_z
_atom_site_B_iso_or_equiv
_atom_site_occupancy
_atom_site_attached_hydrogens
Ni1 Ni2+ 3 b 0 0. 0.264 . 1. 0
S1 S2- 3 b 0.714 0.714 0.361 . 1. 0
