
#(C) 2017 by FIZ Karlsruhe - Leibniz Institute for Information Infrastructure.  All rights reserved.
data_52364-ICSD
_database_code_ICSD 52364
_audit_creation_date 2003-04-01
_audit_update_record 2007-08-01
_chemical_name_systematic 'Cobalt bromide'
_chemical_formula_structural 'Co Br2'
_chemical_formula_sum 'Br2 Co1'
_chemical_name_structure_type CdI2
_exptl_crystal_density_diffrn 5.02
_publ_section_title 'Crystal structure of the bromides of divalent metals'
loop_
_citation_id
_citation_journal_full
_citation_year
_citation_journal_volume
_citation_page_first
_citation_page_last
_citation_journal_id_ASTM
primary

;
Atti della Accademia Nazionale dei Lincei, Classe di Fisiche, Matematiche e
Naturali, Rendiconti
; 1929 9 782 789 AANLAW
loop_
_publ_author_name
'Ferrari, A.'
'Giorgio, F.'
_cell_length_a 3.692(5)
_cell_length_b 3.692
_cell_length_c 6.132
_cell_angle_alpha 90.
_cell_angle_beta 90.
_cell_angle_gamma 120.
_cell_volume 72.39
_cell_formula_units_Z 1
_symmetry_space_group_name_H-M 'P -3 m 1'
_symmetry_Int_Tables_number 164
loop_
_symmetry_equiv_pos_site_id
_symmetry_equiv_pos_as_xyz
1 'x-y, -y, -z'
2 '-x, -x+y, -z'
3 'y, x, -z'
4 'x-y, x, -z'
5 'y, -x+y, -z'
6 '-x, -y, -z'
7 '-x+y, y, z'
8 'x, x-y, z'
9 '-y, -x, z'
10 '-x+y, -x, z'
11 '-y, x-y, z'
12 'x, y, z'
loop_
_atom_type_symbol
_atom_type_oxidation_number
Co2+ 2
Br1- -1
loop_
_atom_site_label
_atom_site_type_symbol
_atom_site_symmetry_multiplicity
_atom_site_Wyckoff_symbol
_atom_site_fract_x
_atom_site_fract_y
_atom_site_fract_z
_atom_site_B_iso_or_equiv
_atom_site_occupancy
_atom_site_attached_hydrogens
Co1 Co2+ 1 a 0 0 0 . 1. 0
Br1 Br1- 2 d 0.3333 0.6667 0.25 . 1. 0
#End of TTdata_52364-ICSD