
#(C) 2017 by FIZ Karlsruhe - Leibniz Institute for Information Infrastructure.  All rights reserved.
data_52380-ICSD
_database_code_ICSD 52380
_audit_creation_date 2003-04-01
_chemical_name_systematic 'Silver iodate(VII)'
_chemical_formula_structural 'Ag (I O4)'
_chemical_formula_sum 'Ag1 I1 O4'
_chemical_name_structure_type Scheelite-CaWO4
_exptl_crystal_density_diffrn 5.7
_publ_section_title
'Darstellung und Krystallstruktur des normalen (meta-) Silverperjodats'
loop_
_citation_id
_citation_journal_full
_citation_year
_citation_journal_volume
_citation_page_first
_citation_page_last
_citation_journal_id_ASTM
primary

;
Zeitschrift fuer Physikalische Chemie, Abteilung B: Chemie der
Elementarprozesse, Aufbau der Materie
; 1932 16 102 112 ZPCBAL
loop_
_publ_author_name
'Birkenbach, L.'
'Buschendorf, F.'
_cell_length_a 5.379(20)
_cell_length_b 5.379
_cell_length_c 12.037(20)
_cell_angle_alpha 90.
_cell_angle_beta 90.
_cell_angle_gamma 90.
_cell_volume 348.27
_cell_formula_units_Z 4
_symmetry_space_group_name_H-M 'I 41/a Z'
_symmetry_Int_Tables_number 88
loop_
_symmetry_equiv_pos_site_id
_symmetry_equiv_pos_as_xyz
1 '-y+3/4, x+3/4, -z+3/4'
2 'y+1/4, -x+3/4, -z+3/4'
3 'x, y+1/2, -z'
4 '-x, -y, -z'
5 'y+1/4, -x+1/4, z+1/4'
6 '-y+3/4, x+1/4, z+1/4'
7 '-x, -y+1/2, z'
8 'x, y, z'
9 '-y+1/4, x+1/4, -z+1/4'
10 'y+3/4, -x+1/4, -z+1/4'
11 'x+1/2, y, -z+1/2'
12 '-x+1/2, -y+1/2, -z+1/2'
13 'y+3/4, -x+3/4, z+3/4'
14 '-y+1/4, x+3/4, z+3/4'
15 '-x+1/2, -y, z+1/2'
16 'x+1/2, y+1/2, z+1/2'
loop_
_atom_type_symbol
_atom_type_oxidation_number
Ag1+ 1
I7+ 7
O2- -2
loop_
_atom_site_label
_atom_site_type_symbol
_atom_site_symmetry_multiplicity
_atom_site_Wyckoff_symbol
_atom_site_fract_x
_atom_site_fract_y
_atom_site_fract_z
_atom_site_B_iso_or_equiv
_atom_site_occupancy
_atom_site_attached_hydrogens
Ag1 Ag1+ 4 b 0 0.75 0.375 . 1. 0
I1 I7+ 4 a 0 0.25 0.125 . 1. 0
O1 O2- 16 f 0.2 0.13 0.05 . 1. 0
#End of TTdata_52380-ICSD