
#(C) 2017 by FIZ Karlsruhe - Leibniz Institute for Information Infrastructure.  All rights reserved.
data_52830-ICSD
_database_code_ICSD 52830
_audit_creation_date 2003-04-01
_audit_update_record 2012-08-01
_chemical_name_systematic 'Cadmium antimonide (1/1)'
_chemical_formula_structural 'Cd Sb'
_chemical_formula_sum 'Cd1 Sb1'
_chemical_name_structure_type ZnAs
_exptl_crystal_density_diffrn 6.84
_publ_section_title 'Cadmium antimonide, Cd Sb'
loop_
_citation_id
_citation_journal_full
_citation_year
_citation_journal_volume
_citation_page_first
_citation_page_last
_citation_journal_id_ASTM
primary 'Acta Crystallographica, Section C: Crystal Structure Communications'
1988 44 2196 2197 ACSCEE
loop_
_publ_author_name
'Range, K.J.'
'Pfauntsch, J.'
'Klement, U.'
_cell_length_a 6.469(1)
_cell_length_b 8.251(2)
_cell_length_c 8.522(2)
_cell_angle_alpha 90.
_cell_angle_beta 90.
_cell_angle_gamma 90.
_cell_volume 454.87
_cell_formula_units_Z 8
_symmetry_space_group_name_H-M 'P b c a'
_symmetry_Int_Tables_number 61
_refine_ls_R_factor_all 0.043
loop_
_symmetry_equiv_pos_site_id
_symmetry_equiv_pos_as_xyz
1 'x+1/2, y, -z+1/2'
2 'x, -y+1/2, z+1/2'
3 '-x+1/2, y+1/2, z'
4 '-x, -y, -z'
5 '-x+1/2, -y, z+1/2'
6 '-x, y+1/2, -z+1/2'
7 'x+1/2, -y+1/2, -z'
8 'x, y, z'
loop_
_atom_type_symbol
_atom_type_oxidation_number
Cd2+ 2
Sb2- -2
loop_
_atom_site_label
_atom_site_type_symbol
_atom_site_symmetry_multiplicity
_atom_site_Wyckoff_symbol
_atom_site_fract_x
_atom_site_fract_y
_atom_site_fract_z
_atom_site_B_iso_or_equiv
_atom_site_occupancy
_atom_site_attached_hydrogens
Cd1 Cd2+ 8 c 0.5503 0.6238 0.63426 . 1. 0
Sb1 Sb2- 8 c 0.1398 0.0739 0.1039 . 1. 0
#End of TTdata_52830-ICSD