
#(C) 2017 by FIZ Karlsruhe - Leibniz Institute for Information Infrastructure.  All rights reserved.
data_53098-ICSD
_database_code_ICSD 53098
_audit_creation_date 2002-04-01
_chemical_name_systematic 'Indium molybdenum selenide (1/3/3)'
_chemical_formula_structural 'In Mo3 Se3'
_chemical_formula_sum 'In1 Mo3 Se3'
_chemical_name_structure_type Fe3TlTe3
_exptl_crystal_density_diffrn 6.99
_publ_section_title

;
New compounds with infinite chains of face-condensed octahedral Mo6 clusters;
In Mo3 Se3, In Mo3 Te3, Tl Mo3 Se3 and Tl Mo3 Te3
;
loop_
_citation_id
_citation_journal_full
_citation_year
_citation_journal_volume
_citation_page_first
_citation_page_last
_citation_journal_id_ASTM
primary 'Journal of the Less-Common Metals' 1980 71 135 145 JCOMAH
loop_
_publ_author_name
'Hoenle, W.'
'von Schnering, H.G.'
'Lipka, A.'
'Yvon, K.'
_cell_length_a 8.835(1)
_cell_length_b 8.835
_cell_length_c 4.492(1)
_cell_angle_alpha 90.
_cell_angle_beta 90.
_cell_angle_gamma 120.
_cell_volume 303.66
_cell_formula_units_Z 2
_symmetry_space_group_name_H-M 'P 63/m'
_symmetry_Int_Tables_number 176
_refine_ls_R_factor_all 0.045
loop_
_symmetry_equiv_pos_site_id
_symmetry_equiv_pos_as_xyz
1 '-x+y, -x, -z+1/2'
2 '-y, x-y, -z+1/2'
3 'x, y, -z+1/2'
4 'x-y, x, -z'
5 'y, -x+y, -z'
6 '-x, -y, -z'
7 'x-y, x, z+1/2'
8 'y, -x+y, z+1/2'
9 '-x, -y, z+1/2'
10 '-x+y, -x, z'
11 '-y, x-y, z'
12 'x, y, z'
loop_
_atom_type_symbol
_atom_type_oxidation_number
In0+ 0
Mo0+ 0
Se0+ 0
loop_
_atom_site_label
_atom_site_type_symbol
_atom_site_symmetry_multiplicity
_atom_site_Wyckoff_symbol
_atom_site_fract_x
_atom_site_fract_y
_atom_site_fract_z
_atom_site_B_iso_or_equiv
_atom_site_occupancy
_atom_site_attached_hydrogens
In1 In0+ 2 d 0.6667 0.3333 0.25 . 1. 0
Mo1 Mo0+ 6 h 0.1886(2) 0.1540(2) 0.25 . 1. 0
Se1 Se0+ 6 h 0.0698(3) 0.3708(3) 0.25 . 1. 0
loop_
_atom_site_aniso_label
_atom_site_aniso_type_symbol
_atom_site_aniso_U_11
_atom_site_aniso_U_22
_atom_site_aniso_U_33
_atom_site_aniso_U_12
_atom_site_aniso_U_13
_atom_site_aniso_U_23
In1 In0+ 0.0354(11) 0.0354 0.0443(20) 0.0177 0 0
Mo1 Mo0+ 0.0146(8) 0.0151(7) 0.0141(8) 0.0074(5) 0 0
Se1 Se0+ 0.0173(8) 0.0123(9) 0.0134(9) 0.0080(6) 0 0
#End of TTdata_53098-ICSD