
#(C) 2017 by FIZ Karlsruhe - Leibniz Institute for Information Infrastructure.  All rights reserved.
data_53146-ICSD
_database_code_ICSD 53146
_audit_creation_date 2002-04-01
_audit_update_record 2012-08-01
_chemical_name_systematic 'Chromium nitride - LT'
_chemical_formula_structural 'Cr N'
_chemical_formula_sum 'Cr1 N1'
_chemical_name_structure_type CrN
_exptl_crystal_density_diffrn 6.22
_cell_measurement_temperature 23.
_publ_section_title

;
Contribution a l'etude de Cr N a basses temperatures par diffraction de rayons
X et de neutrons
;
loop_
_citation_id
_citation_journal_full
_citation_year
_citation_journal_volume
_citation_page_first
_citation_page_last
_citation_journal_id_ASTM
primary
'Comptes Rendus Hebdomadaires des Seances de l'Academie des Sciences, Serie B' 1969 269 574 577 CHDBAN
loop_
_publ_author_name
'Nasr Eddine, M.'
'Sayetat, F.'
'Bertaut, E.F.'
'Paris, J.'
_cell_length_a 2.9698
_cell_length_b 4.1218
_cell_length_c 2.8796
_cell_angle_alpha 90.
_cell_angle_beta 90.
_cell_angle_gamma 90.
_cell_volume 35.25
_cell_formula_units_Z 2
_symmetry_space_group_name_H-M 'P m m n S'
_symmetry_Int_Tables_number 59
loop_
_symmetry_equiv_pos_site_id
_symmetry_equiv_pos_as_xyz
1 'x+1/2, -y+1/2, -z'
2 'x+1/2, y+1/2, -z'
3 'x, -y, z'
4 '-x, y, z'
5 '-x+1/2, y+1/2, -z'
6 '-x+1/2, -y+1/2, -z'
7 '-x, -y, z'
8 'x, y, z'
loop_
_atom_type_symbol
_atom_type_oxidation_number
Cr3+ 3
N3- -3
loop_
_atom_site_label
_atom_site_type_symbol
_atom_site_symmetry_multiplicity
_atom_site_Wyckoff_symbol
_atom_site_fract_x
_atom_site_fract_y
_atom_site_fract_z
_atom_site_B_iso_or_equiv
_atom_site_occupancy
_atom_site_attached_hydrogens
Cr1 Cr3+ 2 a 0 0 0.24 . 1. 0
N1 N3- 2 b 0 0.5 0.26 . 1. 0
#End of TTdata_53146-ICSD