
#(C) 2017 by FIZ Karlsruhe - Leibniz Institute for Information Infrastructure.  All rights reserved.
data_53743-ICSD
_database_code_ICSD 53743
_audit_creation_date 2003-04-01
_chemical_name_systematic 'Nickel germanide (2/1)'
_chemical_formula_structural 'Ni2 Ge'
_chemical_formula_sum 'Ge1 Ni2'
_chemical_name_structure_type Co2Si
_exptl_crystal_density_diffrn 8.87
_publ_section_title 'Zur Struktur der Mischung Nickel-Germanium'
loop_
_citation_id
_citation_journal_full
_citation_year
_citation_journal_volume
_citation_page_first
_citation_page_last
_citation_journal_id_ASTM
primary 'Journal of the Less-Common Metals' 1971 24 23 40 JCOMAH
loop_
_publ_author_name
'Ellner, M.'
'Goedecke, T.'
'Schubert, K.'
_cell_length_a 5.113(3)
_cell_length_b 3.830(2)
_cell_length_c 7.264(4)
_cell_angle_alpha 90.
_cell_angle_beta 90.
_cell_angle_gamma 90.
_cell_volume 142.25
_cell_formula_units_Z 4
_symmetry_space_group_name_H-M 'P n m a'
_symmetry_Int_Tables_number 62
loop_
_symmetry_equiv_pos_site_id
_symmetry_equiv_pos_as_xyz
1 'x+1/2, y, -z+1/2'
2 'x, -y+1/2, z'
3 '-x+1/2, y+1/2, z+1/2'
4 '-x, -y, -z'
5 '-x+1/2, -y, z+1/2'
6 '-x, y+1/2, -z'
7 'x+1/2, -y+1/2, -z+1/2'
8 'x, y, z'
loop_
_atom_type_symbol
_atom_type_oxidation_number
Ni0+ 0
Ge0+ 0
loop_
_atom_site_label
_atom_site_type_symbol
_atom_site_symmetry_multiplicity
_atom_site_Wyckoff_symbol
_atom_site_fract_x
_atom_site_fract_y
_atom_site_fract_z
_atom_site_B_iso_or_equiv
_atom_site_occupancy
_atom_site_attached_hydrogens
Ni1 Ni0+ 4 c 0.324 0.25 0.061 . 1. 0
Ni2 Ni0+ 4 c 0.962 0.25 0.795 . 1. 0
Ge1 Ge0+ 4 c 0.273 0.25 0.387 . 1. 0
#End of TTdata_53743-ICSD