
#(C) 2017 by FIZ Karlsruhe - Leibniz Institute for Information Infrastructure.  All rights reserved.
data_54283-ICSD
_database_code_ICSD 54283
_audit_creation_date 2005-10-01
_audit_update_record 2016-02-01
_chemical_name_systematic 'Niobium platinum (1/3)'
_chemical_formula_structural 'Nb Pt3'
_chemical_formula_sum 'Nb1 Pt3'
_chemical_name_structure_type Ni3Ta
_exptl_crystal_density_diffrn 18.31
_publ_section_title

;
Structure refinement of monoclinic 12-layer Ta Ni3 with beta-(Nb Pt3) type.
New crystallographic descriptions of this type and of the (Nb3 Rh5)- type
based on smaller unit cells
;
loop_
_citation_id
_citation_journal_full
_citation_year
_citation_journal_volume
_citation_page_first
_citation_page_last
_citation_journal_id_ASTM
primary 'Acta Crystallographica, Section C: Crystal Structure Communications'
1991 47 479 483 ACSCEE
loop_
_publ_author_name
'Zhao, J.-T.'
'Gelato, L.'
'Parthe, E.'
_cell_length_a 4.87
_cell_length_b 5.537
_cell_length_c 9.268
_cell_angle_alpha 90
_cell_angle_beta 100.2
_cell_angle_gamma 90
_cell_volume 245.96
_cell_formula_units_Z 4
_symmetry_space_group_name_H-M 'P 1 21/m 1'
_symmetry_Int_Tables_number 11
loop_
_symmetry_equiv_pos_site_id
_symmetry_equiv_pos_as_xyz
1 'x, -y+1/2, z'
2 '-x, -y, -z'
3 '-x, y+1/2, -z'
4 'x, y, z'
loop_
_atom_type_symbol
_atom_type_oxidation_number
Nb0+ 0
Pt0+ 0
loop_
_atom_site_label
_atom_site_type_symbol
_atom_site_symmetry_multiplicity
_atom_site_Wyckoff_symbol
_atom_site_fract_x
_atom_site_fract_y
_atom_site_fract_z
_atom_site_B_iso_or_equiv
_atom_site_occupancy
_atom_site_attached_hydrogens
Nb1 Nb0+ 2 e 0.63 0.25 0.38 . 1. 0
Nb2 Nb0+ 2 e 0.79 0.25 0.88 . 1. 0
Pt1 Pt0+ 2 e 0.21 0.25 0.13 . 1. 0
Pt2 Pt0+ 2 e 0.38 0.25 0.63 . 1. 0
Pt3 Pt0+ 4 f 0.13 0 0.38 . 1. 0
Pt4 Pt0+ 4 f 0.71 0 0.13 . 1. 0
#End of TTdata_54283-ICSD