
#(C) 2017 by FIZ Karlsruhe - Leibniz Institute for Information Infrastructure.  All rights reserved.
data_54337-ICSD
_database_code_ICSD 54337
_audit_creation_date 2005-10-01
_chemical_name_systematic 'Zirconium palladium (3/4)'
_chemical_formula_structural 'Zr3 Pd4'
_chemical_formula_sum 'Pd4 Zr3'
_chemical_name_structure_type Pd4Pu3
_exptl_crystal_density_diffrn 9.3
_cell_measurement_temperature 298.
_publ_section_title 'Crystal structure of the Zr3 Pd4 phase'
loop_
_citation_id
_citation_journal_full
_citation_year
_citation_journal_volume
_citation_page_first
_citation_page_last
_citation_journal_id_ASTM
primary 'Journal of Alloys and Compounds' 1993 201 121 126 JALCEU
loop_
_publ_author_name
'Bendersky, L.A.'
'Stalick, J.K.'
'Waterstrat, R.M.'
_cell_length_a 12.497(1)
_cell_length_b 12.497(1)
_cell_length_c 5.5409(3)
_cell_angle_alpha 90.
_cell_angle_beta 90.
_cell_angle_gamma 120.
_cell_volume 749.42
_cell_formula_units_Z 6
_symmetry_space_group_name_H-M 'R -3 H'
_symmetry_Int_Tables_number 148
_refine_ls_R_factor_all 0.042
loop_
_symmetry_equiv_pos_site_id
_symmetry_equiv_pos_as_xyz
1 'x-y, x, -z'
2 'y, -x+y, -z'
3 '-x, -y, -z'
4 '-x+y, -x, z'
5 '-y, x-y, z'
6 'x, y, z'
7 'x-y+2/3, x+1/3, -z+1/3'
8 'y+2/3, -x+y+1/3, -z+1/3'
9 '-x+2/3, -y+1/3, -z+1/3'
10 '-x+y+2/3, -x+1/3, z+1/3'
11 '-y+2/3, x-y+1/3, z+1/3'
12 'x+2/3, y+1/3, z+1/3'
13 'x-y+1/3, x+2/3, -z+2/3'
14 'y+1/3, -x+y+2/3, -z+2/3'
15 '-x+1/3, -y+2/3, -z+2/3'
16 '-x+y+1/3, -x+2/3, z+2/3'
17 '-y+1/3, x-y+2/3, z+2/3'
18 'x+1/3, y+2/3, z+2/3'
loop_
_atom_type_symbol
_atom_type_oxidation_number
Pd0+ 0
Zr0+ 0
loop_
_atom_site_label
_atom_site_type_symbol
_atom_site_symmetry_multiplicity
_atom_site_Wyckoff_symbol
_atom_site_fract_x
_atom_site_fract_y
_atom_site_fract_z
_atom_site_B_iso_or_equiv
_atom_site_occupancy
_atom_site_attached_hydrogens
Pd1 Pd0+ 3 a 0 0 0 1.07(11) 1. 0
Pd2 Pd0+ 3 b 0 0 0.5 0.72(8) 1. 0
Pd3 Pd0+ 18 f 0.2670(1) 0.2140(2) 0.2925(3) 0.72(3) 1. 0
Zr1 Zr0+ 18 f 0.5502(1) 0.8402(1) 0.4440(2) 0.71(3) 1. 0
#End of TTdata_54337-ICSD