
#(C) 2017 by FIZ Karlsruhe - Leibniz Institute for Information Infrastructure.  All rights reserved.
data_5434-ICSD
_database_code_ICSD 5434
_audit_creation_date 2016-02-01
_chemical_name_systematic 'Nickel bismuth sulfide (3/2/2)'
_chemical_formula_structural 'Ni3 Bi2 S2'
_chemical_formula_sum 'Bi2 Ni3 S2'
_chemical_name_structure_type Ni3Bi2S2
_chemical_name_mineral 'Parkerite-(Ni,Bi,S) M'
_exptl_crystal_density_diffrn 8.52
_publ_section_title
'Synthesis and electrical properties of shandite-parkerite phases, A2M3Ch2'
loop_
_citation_id
_citation_journal_full
_citation_year
_citation_journal_volume
_citation_page_first
_citation_page_last
_citation_journal_id_ASTM
primary 'Journal of the Less-Common Metals' 1988 138 215 224 JCOMAH
loop_
_publ_author_name
'Natarajan, S.'
'Rao, G.V.S.'
'Baskaran, R.'
'Radhakrishnan, T.S.'
_cell_length_a 11.07
_cell_length_b 8.09
_cell_length_c 7.97
_cell_angle_alpha 90.
_cell_angle_beta 134.
_cell_angle_gamma 90.
_cell_volume 513.44
_cell_formula_units_Z 4
_symmetry_space_group_name_H-M 'C 1 2/m 1'
_symmetry_Int_Tables_number 12
loop_
_symmetry_equiv_pos_site_id
_symmetry_equiv_pos_as_xyz
1 '-x, y, -z'
2 '-x, -y, -z'
3 'x, -y, z'
4 'x, y, z'
5 '-x+1/2, y+1/2, -z'
6 '-x+1/2, -y+1/2, -z'
7 'x+1/2, -y+1/2, z'
8 'x+1/2, y+1/2, z'
loop_
_atom_type_symbol
_atom_type_oxidation_number
Ni1+ 1.333
Bi0+ 0
S2- -2
loop_
_atom_site_label
_atom_site_type_symbol
_atom_site_symmetry_multiplicity
_atom_site_Wyckoff_symbol
_atom_site_fract_x
_atom_site_fract_y
_atom_site_fract_z
_atom_site_B_iso_or_equiv
_atom_site_occupancy
_atom_site_attached_hydrogens
Ni1 Ni1+ 4 i 0.018 0 0.2904 . 1. 0
Ni2 Ni1+ 4 g 0 0.2737 0 . 1. 0
Ni3 Ni1+ 4 e 0.25 0.25 0 . 1. 0
Bi1 Bi0+ 4 i 0.2117 0 0.202 . 1. 0
Bi2 Bi0+ 4 i 0.791 0 0.2431 . 1. 0
S1 S2- 8 j 0.0266 0.2831 0.3099 . 1. 0
#End of TTdata_5434-ICSD