
#(C) 2017 by FIZ Karlsruhe - Leibniz Institute for Information Infrastructure.  All rights reserved.
data_54547-ICSD
_database_code_ICSD 54547
_audit_creation_date 2005-10-01
_chemical_name_systematic 'Calcium auride (3/4)'
_chemical_formula_structural 'Ca3 Au4'
_chemical_formula_sum 'Au4 Ca3'
_chemical_name_structure_type Pd4Pu3
_exptl_crystal_density_diffrn 9.37
_publ_section_title 'Synthesis and crystal structure of Ca3 Au4'
loop_
_citation_id
_citation_journal_full
_citation_year
_citation_journal_volume
_citation_page_first
_citation_page_last
_citation_journal_id_ASTM
primary 'Journal of Alloys and Compounds' 1999 292 152 155 JALCEU
loop_
_publ_author_name
'Henry, P.F.'
'Weller, M.T.'
_cell_length_a 13.73512(12)
_cell_length_b 13.73512(12)
_cell_length_c 5.90840(10)
_cell_angle_alpha 90.
_cell_angle_beta 90.
_cell_angle_gamma 120.
_cell_volume 965.31
_cell_formula_units_Z 6
_symmetry_space_group_name_H-M 'R -3 H'
_symmetry_Int_Tables_number 148
_refine_ls_R_factor_all 0.0289
loop_
_symmetry_equiv_pos_site_id
_symmetry_equiv_pos_as_xyz
1 'x-y, x, -z'
2 'y, -x+y, -z'
3 '-x, -y, -z'
4 '-x+y, -x, z'
5 '-y, x-y, z'
6 'x, y, z'
7 'x-y+2/3, x+1/3, -z+1/3'
8 'y+2/3, -x+y+1/3, -z+1/3'
9 '-x+2/3, -y+1/3, -z+1/3'
10 '-x+y+2/3, -x+1/3, z+1/3'
11 '-y+2/3, x-y+1/3, z+1/3'
12 'x+2/3, y+1/3, z+1/3'
13 'x-y+1/3, x+2/3, -z+2/3'
14 'y+1/3, -x+y+2/3, -z+2/3'
15 '-x+1/3, -y+2/3, -z+2/3'
16 '-x+y+1/3, -x+2/3, z+2/3'
17 '-y+1/3, x-y+2/3, z+2/3'
18 'x+1/3, y+2/3, z+2/3'
loop_
_atom_type_symbol
_atom_type_oxidation_number
Au0+ 0
Ca0+ 0
loop_
_atom_site_label
_atom_site_type_symbol
_atom_site_symmetry_multiplicity
_atom_site_Wyckoff_symbol
_atom_site_fract_x
_atom_site_fract_y
_atom_site_fract_z
_atom_site_B_iso_or_equiv
_atom_site_occupancy
_atom_site_attached_hydrogens
Au1 Au0+ 3 a 0 0 0 0.0281 1. 0
Au2 Au0+ 3 b 0 0 0.5 0.0281 1. 0
Au3 Au0+ 18 f 0.27764(8) 0.22129(8) 0.27924(18) 0.0119 1. 0
Ca1 Ca0+ 18 f 0.04444(12) 0.20889(10) 0.23609(25) 0.0070(3) 1. 0
loop_
_atom_site_aniso_label
_atom_site_aniso_type_symbol
_atom_site_aniso_U_11
_atom_site_aniso_U_22
_atom_site_aniso_U_33
_atom_site_aniso_U_12
_atom_site_aniso_U_13
_atom_site_aniso_U_23
Au1 Au0+ 0.0222(6) 0.0222(6) 0.0393(14) 0.0111(3) 0. 0.
Au2 Au0+ 0.0222(6) 0.0222(6) 0.0393(14) 0.0111(3) 0. 0.
Au3 Au0+ 0.0121(5) 0.0121(5) 0.0126(4) 0.00688(42) -0.0031(4) 0.0009(4)
#End of TTdata_54547-ICSD