
#(C) 2017 by FIZ Karlsruhe - Leibniz Institute for Information Infrastructure.  All rights reserved.
data_54930-ICSD
_database_code_ICSD 54930
_audit_creation_date 2005-10-01
_audit_update_record 2012-08-01
_chemical_name_systematic 'Hafnium manganese stannide (1/6/6)'
_chemical_formula_structural 'Hf Mn6 Sn6'
_chemical_formula_sum 'Hf1 Mn6 Sn6'
_chemical_name_structure_type Fe6Ge6Mg
_exptl_crystal_density_diffrn 8.78
_cell_measurement_temperature 300.
_publ_section_title

;
A study of the new (Hf Fe6 Ge6)-type Zr Mn6 Sn6 and Hf Mn6 Sn6 compounds by
magnetization and neutron diffraction measurements
;
loop_
_citation_id
_citation_journal_full
_citation_year
_citation_journal_volume
_citation_page_first
_citation_page_last
_citation_journal_id_ASTM
primary 'Journal of Alloys and Compounds' 1999 284 54 59 JALCEU
loop_
_publ_author_name
'Mazet, T.'
'Welter, R.'
'Malaman, B.'
_cell_length_a 5.449(1)
_cell_length_b 5.449(1)
_cell_length_c 8.977(2)
_cell_angle_alpha 90.
_cell_angle_beta 90.
_cell_angle_gamma 120.
_cell_volume 230.83
_cell_formula_units_Z 1
_symmetry_space_group_name_H-M 'P 6/m m m'
_symmetry_Int_Tables_number 191
_refine_ls_R_factor_all 0.0268
loop_
_symmetry_equiv_pos_site_id
_symmetry_equiv_pos_as_xyz
1 '-x, -x+y, -z'
2 'x-y, -y, -z'
3 'y, x, -z'
4 '-x+y, -x, -z'
5 '-y, x-y, -z'
6 'x, y, -z'
7 'x, x-y, -z'
8 '-x+y, y, -z'
9 '-y, -x, -z'
10 'x-y, x, -z'
11 'y, -x+y, -z'
12 '-x, -y, -z'
13 'x, x-y, z'
14 '-x+y, y, z'
15 '-y, -x, z'
16 'x-y, x, z'
17 'y, -x+y, z'
18 '-x, -y, z'
19 '-x, -x+y, z'
20 'x-y, -y, z'
21 'y, x, z'
22 '-x+y, -x, z'
23 '-y, x-y, z'
24 'x, y, z'
loop_
_atom_type_symbol
_atom_type_oxidation_number
Hf0+ 0
Sn0+ 0
Mn0+ 0
loop_
_atom_site_label
_atom_site_type_symbol
_atom_site_symmetry_multiplicity
_atom_site_Wyckoff_symbol
_atom_site_fract_x
_atom_site_fract_y
_atom_site_fract_z
_atom_site_B_iso_or_equiv
_atom_site_occupancy
_atom_site_attached_hydrogens
Hf1 Hf0+ 1 b 0 0 0.5 . 1. 0
Sn1 Sn0+ 2 d 0.3333 0.6667 0.5 . 1. 0
Sn2 Sn0+ 2 c 0.3333 0.6667 0 . 1. 0
Sn3 Sn0+ 2 e 0 0 0.176(2) . 1. 0
Mn1 Mn0+ 6 i 0.5 0 0.256(1) . 1. 0
#End of TTdata_54930-ICSD