
#(C) 2017 by FIZ Karlsruhe - Leibniz Institute for Information Infrastructure.  All rights reserved.
data_55013-ICSD
_database_code_ICSD 55013
_audit_creation_date 2005-10-01
_chemical_name_systematic 'Dirubidium tetrachlorocuprate'
_chemical_formula_structural 'Rb2 (Cu Cl4)'
_chemical_formula_sum 'Cl4 Cu1 Rb2'
_chemical_name_structure_type Rb2CuCl4
_exptl_crystal_density_diffrn 3.17
_cell_measurement_temperature 1.5
_publ_section_title

;
Three-dimensional magnetic ordering in the Rb2 Cu Cl4 layer perovskite -
structural correlations
;
loop_
_citation_id
_citation_journal_full
_citation_year
_citation_journal_volume
_citation_page_first
_citation_page_last
_citation_journal_id_ASTM
primary 'Journal of Physics: Condensed Matter' 2004 16 1927 1938 JCOMEL
loop_
_publ_author_name
'Aguado, F.'
'Rodriguez, F.'
'Valiente, R.'
'Senas, A.'
'Goncharenko, I.'
_cell_length_a 7.122
_cell_length_b 7.127
_cell_length_c 15.532
_cell_angle_alpha 90.
_cell_angle_beta 90.
_cell_angle_gamma 90.
_cell_volume 788.38
_cell_formula_units_Z 4
_symmetry_space_group_name_H-M 'A c a m'
_symmetry_Int_Tables_number 64
_refine_ls_R_factor_all 0.07
loop_
_symmetry_equiv_pos_site_id
_symmetry_equiv_pos_as_xyz
1 'x+1/2, -y+1/2, -z'
2 '-x+1/2, y+1/2, -z'
3 'x, y, -z'
4 '-x, -y, -z'
5 '-x+1/2, y+1/2, z'
6 'x+1/2, -y+1/2, z'
7 '-x, -y, z'
8 'x, y, z'
9 'x+1/2, -y, -z+1/2'
10 '-x+1/2, y, -z+1/2'
11 'x, y+1/2, -z+1/2'
12 '-x, -y+1/2, -z+1/2'
13 '-x+1/2, y, z+1/2'
14 'x+1/2, -y, z+1/2'
15 '-x, -y+1/2, z+1/2'
16 'x, y+1/2, z+1/2'
loop_
_atom_type_symbol
_atom_type_oxidation_number
Cu2+ 2
Rb1+ 1
Cl1- -1
loop_
_atom_site_label
_atom_site_type_symbol
_atom_site_symmetry_multiplicity
_atom_site_Wyckoff_symbol
_atom_site_fract_x
_atom_site_fract_y
_atom_site_fract_z
_atom_site_B_iso_or_equiv
_atom_site_occupancy
_atom_site_attached_hydrogens
Cu1 Cu2+ 4 a 0 0 0 . 1. 0
Rb1 Rb1+ 8 d 0 0 0.3584(4) . 1. 0
Cl1 Cl1- 8 f 0.229(1) 0.229(1) 0 . 1. 0
Cl2 Cl1- 8 d 0 0 0.1460(6) . 1. 0
#End of TTdata_55013-ICSD