
#(C) 2017 by FIZ Karlsruhe - Leibniz Institute for Information Infrastructure.  All rights reserved.
data_55553-ICSD
_database_code_ICSD 55553
_audit_creation_date 2005-10-01
_chemical_name_systematic 'Scandium cadmium (1/7)'
_chemical_formula_structural 'Sc Cd7'
_chemical_formula_sum 'Cd7 Sc1'
_exptl_crystal_density_diffrn 8.13
_publ_section_title 'The phase diagram of the Sc - Cd system'
loop_
_citation_id
_citation_journal_full
_citation_year
_citation_journal_volume
_citation_page_first
_citation_page_last
_citation_journal_id_ASTM
primary 'Journal of Alloys and Compounds' 1996 237 121 123 JALCEU
loop_
_publ_author_name
'Palenzona, A.'
'Manfrinetti, P.'
_cell_length_a 7.304
_cell_length_b 9.993
_cell_length_c 9.306
_cell_angle_alpha 90
_cell_angle_beta 90
_cell_angle_gamma 90
_cell_volume 679.23
_cell_formula_units_Z 4
_symmetry_space_group_name_H-M 'C m c m'
_symmetry_Int_Tables_number 63
loop_
_symmetry_equiv_pos_site_id
_symmetry_equiv_pos_as_xyz
1 '-x, y, -z+1/2'
2 '-x, -y, z+1/2'
3 '-x, y, z'
4 '-x, -y, -z'
5 'x, -y, z+1/2'
6 'x, y, -z+1/2'
7 'x, -y, -z'
8 'x, y, z'
9 '-x+1/2, y+1/2, -z+1/2'
10 '-x+1/2, -y+1/2, z+1/2'
11 '-x+1/2, y+1/2, z'
12 '-x+1/2, -y+1/2, -z'
13 'x+1/2, -y+1/2, z+1/2'
14 'x+1/2, y+1/2, -z+1/2'
15 'x+1/2, -y+1/2, -z'
16 'x+1/2, y+1/2, z'
loop_
_atom_type_symbol
_atom_type_oxidation_number
Sc0+ 0
Cd0+ 0
loop_
_atom_site_label
_atom_site_type_symbol
_atom_site_symmetry_multiplicity
_atom_site_Wyckoff_symbol
_atom_site_fract_x
_atom_site_fract_y
_atom_site_fract_z
_atom_site_B_iso_or_equiv
_atom_site_occupancy
_atom_site_attached_hydrogens
Sc1 Sc0+ 4 c 0 0.5205 0.25 . 1. 0
Cd1 Cd0+ 8 g 0.2977 0.2995 0.25 . 1. 0
Cd2 Cd0+ 8 f 0 0.2894 0.0179 . 1. 0
Cd3 Cd0+ 8 e 0.2109 0 0 . 1. 0
Cd4 Cd0+ 4 c 0 0.0853 0.25 . 1. 0
#End of TTdata_55553-ICSD