
#(C) 2017 by FIZ Karlsruhe - Leibniz Institute for Information Infrastructure.  All rights reserved.
data_55577-ICSD
_database_code_ICSD 55577
_audit_creation_date 2005-10-01
_chemical_name_systematic 'Magnesium tin (9/5)'
_chemical_formula_structural 'Mg9 Sn5'
_chemical_formula_sum 'Mg9 Sn5'
_exptl_crystal_density_diffrn 4.06
_cell_measurement_temperature 296.
_publ_section_title

;
Studies on A B2 - type intermetallic compounds. Part V. The crystal structure
of Mg9 Sn5, a supposed high-pressure modification of Mg2 Sn
;
loop_
_citation_id
_citation_journal_full
_citation_year
_citation_journal_volume
_citation_page_first
_citation_page_last
_citation_journal_id_ASTM
primary 'Journal of Alloys and Compounds' 1996 244 170 174 JALCEU
loop_
_publ_author_name
'Range, K.J.'
'Grosch, G.H.'
'Andratschke, M.'
_cell_length_a 13.222(2)
_cell_length_b 13.222(2)
_cell_length_c 13.150(2)
_cell_angle_alpha 90
_cell_angle_beta 90
_cell_angle_gamma 120
_cell_volume 1990.91
_cell_formula_units_Z 6
_symmetry_space_group_name_H-M 'R 3 H'
_symmetry_Int_Tables_number 146
_refine_ls_R_factor_all 0.0297
loop_
_symmetry_equiv_pos_site_id
_symmetry_equiv_pos_as_xyz
1 '-x+y, -x, z'
2 '-y, x-y, z'
3 'x, y, z'
4 '-x+y+2/3, -x+1/3, z+1/3'
5 '-y+2/3, x-y+1/3, z+1/3'
6 'x+2/3, y+1/3, z+1/3'
7 '-x+y+1/3, -x+2/3, z+2/3'
8 '-y+1/3, x-y+2/3, z+2/3'
9 'x+1/3, y+2/3, z+2/3'
loop_
_atom_type_symbol
_atom_type_oxidation_number
Sn0+ 0
Mg0+ 0
loop_
_atom_site_label
_atom_site_type_symbol
_atom_site_symmetry_multiplicity
_atom_site_Wyckoff_symbol
_atom_site_fract_x
_atom_site_fract_y
_atom_site_fract_z
_atom_site_B_iso_or_equiv
_atom_site_occupancy
_atom_site_attached_hydrogens
Sn1 Sn0+ 9 b 0.33547(9) 0.33668(9) 0.25 0.0180(2) 1. 0
Sn2 Sn0+ 9 b -0.3359(1) -0.3340(1) -0.2499(2) 0.0156(3) 1. 0
Sn3 Sn0+ 3 a 0 0 0.3521(2) 0.0348(6) 1. 0
Sn4 Sn0+ 3 a 0 0 -0.3926(3) 0.0391(8) 1. 0
Sn5 Sn0+ 3 a 0 0 0.1118(3) 0.0401(9) 1. 0
Sn6 Sn0+ 3 a 0 0 -0.1505(4) 0.0430(8) 1. 0
Mg1 Mg0+ 9 b 0.2402(4) 0.1620(4) 0.0812(5) 0.028(2) 1. 0
Mg2 Mg0+ 9 b -0.2337(4) -0.1563(5) -0.0841(6) 0.037(2) 1. 0
Mg3 Mg0+ 9 b 0.5161(4) 0.4134(4) 0.0795(5) 0.021(2) 1. 0
Mg4 Mg0+ 9 b 0.4835(5) -0.4095(4) -0.0887(5) 0.021(2) 1. 0
Mg5 Mg0+ 9 b 0.4966(4) 0.5906(4) 0.2406(5) 0.016(1) 1. 0
Mg6 Mg0+ 9 b -0.4953(5) 0.4066(5) -0.2492(5) 0.025(2) 1. 0
#End of TTdata_55577-ICSD