
#(C) 2017 by FIZ Karlsruhe - Leibniz Institute for Information Infrastructure.  All rights reserved.
data_55711-ICSD
_database_code_ICSD 55711
_audit_creation_date 2005-10-01
_chemical_name_systematic 'Distrontium tricopper tetraoxide diiodide'
_chemical_formula_structural 'Sr2 Cu3 O4 I2'
_chemical_formula_sum 'Cu3 I2 O4 Sr2'
_chemical_name_structure_type Ba2Cu3O4Cl2
_exptl_crystal_density_diffrn 5.17
_publ_section_title

;
Synthesis and structure of new layered copper oxide iodides, Sr2 Cu O2 I2 and
Sr2 Cu3 O4 I2
;
loop_
_citation_id
_citation_journal_full
_citation_year
_citation_journal_volume
_citation_page_first
_citation_page_last
_citation_journal_id_ASTM
primary 'Journal of Materials Chemistry' 2003 13 1507 1509 JMACEP
loop_
_publ_author_name
'Knee, C.S.'
'Weller, M.T.'
_cell_length_a 5.54505(5)
_cell_length_b 5.54505(5)
_cell_length_c 14.2716(3)
_cell_angle_alpha 90.
_cell_angle_beta 90.
_cell_angle_gamma 90.
_cell_volume 438.82
_cell_formula_units_Z 2
_symmetry_space_group_name_H-M 'I 4/m m m'
_symmetry_Int_Tables_number 139
_refine_ls_R_factor_all 0.0299
loop_
_symmetry_equiv_pos_site_id
_symmetry_equiv_pos_as_xyz
1 'y, x, -z'
2 '-y, -x, -z'
3 '-y, x, -z'
4 'y, -x, -z'
5 '-x, y, -z'
6 'x, -y, -z'
7 'x, y, -z'
8 '-x, -y, -z'
9 '-y, -x, z'
10 'y, x, z'
11 'y, -x, z'
12 '-y, x, z'
13 'x, -y, z'
14 '-x, y, z'
15 '-x, -y, z'
16 'x, y, z'
17 'y+1/2, x+1/2, -z+1/2'
18 '-y+1/2, -x+1/2, -z+1/2'
19 '-y+1/2, x+1/2, -z+1/2'
20 'y+1/2, -x+1/2, -z+1/2'
21 '-x+1/2, y+1/2, -z+1/2'
22 'x+1/2, -y+1/2, -z+1/2'
23 'x+1/2, y+1/2, -z+1/2'
24 '-x+1/2, -y+1/2, -z+1/2'
25 '-y+1/2, -x+1/2, z+1/2'
26 'y+1/2, x+1/2, z+1/2'
27 'y+1/2, -x+1/2, z+1/2'
28 '-y+1/2, x+1/2, z+1/2'
29 'x+1/2, -y+1/2, z+1/2'
30 '-x+1/2, y+1/2, z+1/2'
31 '-x+1/2, -y+1/2, z+1/2'
32 'x+1/2, y+1/2, z+1/2'
loop_
_atom_type_symbol
_atom_type_oxidation_number
Sr2+ 2
Cu2+ 2
O2- -2
I1- -1
loop_
_atom_site_label
_atom_site_type_symbol
_atom_site_symmetry_multiplicity
_atom_site_Wyckoff_symbol
_atom_site_fract_x
_atom_site_fract_y
_atom_site_fract_z
_atom_site_B_iso_or_equiv
_atom_site_occupancy
_atom_site_attached_hydrogens
Sr1 Sr2+ 4 e 0 0 0.1195(3) 1.02(7) 1. 0
Cu1 Cu2+ 4 c 0.5 0 0 0.81(7) 1. 0
Cu2 Cu2+ 2 a 0 0 0 0.81(9) 1. 0
O1 O2- 8 h 0.2497(6) 0.2497(6) 0 0.93(6) 1. 0
I1 I1- 4 d 0.5 0 0.25 1.15(8) 1. 0
#End of TTdata_55711-ICSD