
#(C) 2017 by FIZ Karlsruhe - Leibniz Institute for Information Infrastructure.  All rights reserved.
data_56027-ICSD
_database_code_ICSD 56027
_audit_creation_date 2003-04-01
_audit_update_record 2012-08-01
_chemical_name_systematic 'Tantalum germanide (3/1) - HT'
_chemical_formula_structural 'Ta3 Ge'
_chemical_formula_sum 'Ge1 Ta3'
_chemical_name_structure_type Ni3P
_exptl_crystal_density_diffrn 14.83
_publ_section_title

;
Coordination and bonding in Fe3 P-Ti3 P-V3 S-Ta3 As-type compounds: The
crystal structures of Hf3 Sb and h-Ta3 Ge
;
loop_
_citation_id
_citation_journal_full
_citation_year
_citation_journal_volume
_citation_page_first
_citation_page_last
_citation_journal_id_ASTM
primary 'Journal of Solid State Chemistry' 1981 39 128 132 JSSCBI
loop_
_publ_author_name
'Willerstroem, J.O.'
'Rundqvist, S.'
_cell_length_a 10.3421(3)
_cell_length_b 10.3421
_cell_length_c 5.1532(2)
_cell_angle_alpha 90.
_cell_angle_beta 90.
_cell_angle_gamma 90.
_cell_volume 551.18
_cell_formula_units_Z 8
_symmetry_space_group_name_H-M 'I -4'
_symmetry_Int_Tables_number 82
_refine_ls_R_factor_all 0.08
loop_
_symmetry_equiv_pos_site_id
_symmetry_equiv_pos_as_xyz
1 '-y, x, -z'
2 'y, -x, -z'
3 '-x, -y, z'
4 'x, y, z'
5 '-y+1/2, x+1/2, -z+1/2'
6 'y+1/2, -x+1/2, -z+1/2'
7 '-x+1/2, -y+1/2, z+1/2'
8 'x+1/2, y+1/2, z+1/2'
loop_
_atom_type_symbol
_atom_type_oxidation_number
Ta0+ 0
Ge0+ 0
loop_
_atom_site_label
_atom_site_type_symbol
_atom_site_symmetry_multiplicity
_atom_site_Wyckoff_symbol
_atom_site_fract_x
_atom_site_fract_y
_atom_site_fract_z
_atom_site_B_iso_or_equiv
_atom_site_occupancy
_atom_site_attached_hydrogens
Ta1 Ta0+ 8 g 0.0834(5) 0.1002(5) 0.2335(11) 1.50(6) 1. 0
Ta2 Ta0+ 8 g 0.3562(4) 0.0180(6) 0.9891(13) 1.50(6) 1. 0
Ta3 Ta0+ 8 g 0.1928(5) 0.2128(5) 0.7651(11) 1.50(6) 1. 0
Ge1 Ge0+ 8 g 0.2942(9) 0.0261(10) 0.4703(27) 0.9(2) 1. 0
#End of TTdata_56027-ICSD