
#(C) 2017 by FIZ Karlsruhe - Leibniz Institute for Information Infrastructure.  All rights reserved.
data_56278-ICSD
_database_code_ICSD 56278
_audit_creation_date 2003-04-01
_audit_update_record 2014-08-01
_chemical_name_systematic 'Bismuth lead palladium (1/1/2)'
_chemical_formula_structural 'Bi Pb Pd2'
_chemical_formula_sum 'Bi1 Pb1 Pd2'
_chemical_name_structure_type BiPbPd2
_chemical_name_mineral Polarite
_exptl_crystal_density_diffrn 12.78
_publ_section_title 'Kristallstrukturen von Pd2 Pb Bi und Pd4 Pb Bi3'
loop_
_citation_id
_citation_journal_full
_citation_year
_citation_journal_volume
_citation_page_first
_citation_page_last
_citation_journal_id_ASTM
primary 'Journal of the Less-Common Metals' 1979 66 1 9 JCOMAH
loop_
_publ_author_name
'Mayer, H.W.'
'Bhatt, Y.C.'
'Schubert, K.'
_cell_length_a 8.681(1)
_cell_length_b 7.150(1)
_cell_length_c 10.535(1)
_cell_angle_alpha 90.
_cell_angle_beta 90.
_cell_angle_gamma 90.
_cell_volume 653.9
_cell_formula_units_Z 8
_symmetry_space_group_name_H-M 'C m c 21'
_symmetry_Int_Tables_number 36
_refine_ls_R_factor_all 0.085
loop_
_symmetry_equiv_pos_site_id
_symmetry_equiv_pos_as_xyz
1 'x, -y, z+1/2'
2 '-x, -y, z+1/2'
3 '-x, y, z'
4 'x, y, z'
5 'x+1/2, -y+1/2, z+1/2'
6 '-x+1/2, -y+1/2, z+1/2'
7 '-x+1/2, y+1/2, z'
8 'x+1/2, y+1/2, z'
loop_
_atom_type_symbol
_atom_type_oxidation_number
Pb0+ 0
Pd0+ 0
Bi0+ 0
loop_
_atom_site_label
_atom_site_type_symbol
_atom_site_symmetry_multiplicity
_atom_site_Wyckoff_symbol
_atom_site_fract_x
_atom_site_fract_y
_atom_site_fract_z
_atom_site_B_iso_or_equiv
_atom_site_occupancy
_atom_site_attached_hydrogens
Pb1 Pb0+ 4 a 0 0.638 0.011 . 1. 0
Pb2 Pb0+ 4 a 0 0.12 0 . 1. 0
Pd1 Pd0+ 4 a 0 0.082 0.731 . 1. 0
Pd2 Pd0+ 4 a 0 0.673 0.736 . 1. 0
Pd3 Pd0+ 8 b 0.256 0.119 0.563 . 1. 0
Bi1 Bi0+ 8 b 0.2763 0.122 0.29 . 1. 0
#End of TTdata_56278-ICSD