
data_56431-ICSD
_database_code_ICSD 56431
_audit_creation_date 2003-04-01
_audit_update_record 2010-08-01
_chemical_name_systematic 'Cesium cadmium tris(nitrate(III))'
_chemical_formula_structural 'Cs Cd (N O2)3'
_chemical_formula_sum 'Cd1 Cs1 N3 O6'
_chemical_name_structure_type CsCd(NO2)3
_exptl_crystal_density_diffrn 3.92
_cell_measurement_temperature 292.
_cell_length_a 5.4579(1)
_cell_length_b 5.4579
_cell_length_c 5.4579
_cell_angle_alpha 90.220(3)
_cell_angle_beta 90.22
_cell_angle_gamma 90.22
_cell_volume 162.58
_cell_formula_units_Z 1
_symmetry_space_group_name_H-M 'R 3 R'
_symmetry_Int_Tables_number 146
_refine_ls_R_factor_all 0.0125
loop_
_symmetry_equiv_pos_site_id
_symmetry_equiv_pos_as_xyz
1 'z, x, y'
2 'y, z, x'
3 'x, y, z'
loop_
_atom_type_symbol
_atom_type_oxidation_number
Cs1+ 1
Cd2+ 2
N3+ 3
O2- -2
loop_
_atom_site_label
_atom_site_type_symbol
_atom_site_symmetry_multiplicity
_atom_site_Wyckoff_symbol
_atom_site_fract_x
_atom_site_fract_y
_atom_site_fract_z
_atom_site_B_iso_or_equiv
_atom_site_occupancy
_atom_site_attached_hydrogens
Cs1 Cs1+ 1 a 0 0 0 0.01981(4) 1. 0
Cd1 Cd2+ 1 a 0.53650(1) 0.5365 0.5365 0.02526(3) 1. 0
N1 N3+ 3 b 0.0792(2) 0.4857(2) 0.5148(2) 0.0187(1) 1. 0
O1 O2- 3 b -.0511(2) 0.4904(2) 0.7038(2) 0.0263(2) 1. 0
O2 O2- 3 b -.0359(2) 0.4876(2) 0.3188(2) 0.0292(2) 1. 0
loop_
_atom_site_aniso_label
_atom_site_aniso_type_symbol
_atom_site_aniso_U_11
_atom_site_aniso_U_22
_atom_site_aniso_U_33
_atom_site_aniso_U_12
_atom_site_aniso_U_13
_atom_site_aniso_U_23
Cs1 Cs1+ 0.01984(3) 0.01984 0.01984 -0.00012(3) -0.00012 -0.00012
Cd1 Cd2+ 0.01509(3) 0.01509 0.01509 -0.00044(3) -0.00044 -0.00044
N1 N3+ 0.0159(3) 0.0167(3) 0.0235(3) 0.0007(2) -0.0006(2) -0.0002(3)
O1 O2- 0.0243(4) 0.0291(4) 0.0258(4) 0.0026(3) 0.0066(3) 0.0027(3)
O2 O2- 0.0306(5) 0.0303(5) 0.0255(4) 0.0023(4) -0.0080(3) -0.0028(4)
