
data_56444-ICSD
_database_code_ICSD 56444
_audit_creation_date 2003-04-01
_audit_update_record 2007-08-01
_chemical_name_systematic 'Lithium barium phosphide (1/1/1)'
_chemical_formula_structural 'Li Ba P'
_chemical_formula_sum 'Ba1 Li1 P1'
_chemical_name_structure_type BaPtSb
_exptl_crystal_density_diffrn 3.81
_cell_length_a 4.525(1)
_cell_length_b 4.525
_cell_length_c 4.303(1)
_cell_angle_alpha 90.
_cell_angle_beta 90.
_cell_angle_gamma 120.
_cell_volume 76.3
_cell_formula_units_Z 1
_symmetry_space_group_name_H-M 'P -6 m 2'
_symmetry_Int_Tables_number 187
loop_
_symmetry_equiv_pos_site_id
_symmetry_equiv_pos_as_xyz
1 'x, x-y, -z'
2 '-x+y, y, -z'
3 '-y, -x, -z'
4 'x, x-y, z'
5 '-x+y, y, z'
6 '-y, -x, z'
7 '-x+y, -x, -z'
8 '-y, x-y, -z'
9 'x, y, -z'
10 '-x+y, -x, z'
11 '-y, x-y, z'
12 'x, y, z'
loop_
_atom_type_symbol
_atom_type_oxidation_number
Ba2+ 2
Li1+ 1
P3- -3
loop_
_atom_site_label
_atom_site_type_symbol
_atom_site_symmetry_multiplicity
_atom_site_Wyckoff_symbol
_atom_site_fract_x
_atom_site_fract_y
_atom_site_fract_z
_atom_site_B_iso_or_equiv
_atom_site_occupancy
_atom_site_attached_hydrogens
Ba1 Ba2+ 1 a 0 0 0 . 1. 0
Li1 Li1+ 1 d 0.3333 0.6667 0.5 . 1. 0
P1 P3- 1 f 0.6667 0.3333 0.5 . 1. 0
