
#(C) 2017 by FIZ Karlsruhe - Leibniz Institute for Information Infrastructure.  All rights reserved.
data_56544-ICSD
_database_code_ICSD 56544
_audit_creation_date 2003-04-01
_chemical_name_systematic 'Silver chloride - III, HP'
_chemical_formula_structural 'Ag Cl'
_chemical_formula_sum 'Ag1 Cl1'
_chemical_name_structure_type TlI
_exptl_crystal_density_diffrn 6.86
_cell_measurement_pressure 1080000.
_publ_section_title
'Pressure-induced phase transitions in Ag Cl, Ag Br, and Ag I'
loop_
_citation_id
_citation_journal_full
_citation_year
_citation_journal_volume
_citation_page_first
_citation_page_last
_citation_journal_id_ASTM
primary 'Physical Review, Serie 3. B - Condensed Matter (18,1978-)' 1999 59 750
761 PRBMDO
loop_
_publ_author_name
'Hull, S.'
'Keen, D.A.'
_cell_length_a 3.399(3)
_cell_length_b 10.124(6)
_cell_length_c 4.032(3)
_cell_angle_alpha 90.
_cell_angle_beta 90.
_cell_angle_gamma 90.
_cell_volume 138.75
_cell_formula_units_Z 4
_symmetry_space_group_name_H-M 'C m c m'
_symmetry_Int_Tables_number 63
loop_
_symmetry_equiv_pos_site_id
_symmetry_equiv_pos_as_xyz
1 '-x, y, -z+1/2'
2 '-x, -y, z+1/2'
3 '-x, y, z'
4 '-x, -y, -z'
5 'x, -y, z+1/2'
6 'x, y, -z+1/2'
7 'x, -y, -z'
8 'x, y, z'
9 '-x+1/2, y+1/2, -z+1/2'
10 '-x+1/2, -y+1/2, z+1/2'
11 '-x+1/2, y+1/2, z'
12 '-x+1/2, -y+1/2, -z'
13 'x+1/2, -y+1/2, z+1/2'
14 'x+1/2, y+1/2, -z+1/2'
15 'x+1/2, -y+1/2, -z'
16 'x+1/2, y+1/2, z'
loop_
_atom_type_symbol
_atom_type_oxidation_number
Ag1+ 1
Cl1- -1
loop_
_atom_site_label
_atom_site_type_symbol
_atom_site_symmetry_multiplicity
_atom_site_Wyckoff_symbol
_atom_site_fract_x
_atom_site_fract_y
_atom_site_fract_z
_atom_site_B_iso_or_equiv
_atom_site_occupancy
_atom_site_attached_hydrogens
Ag1 Ag1+ 4 c 0 0.404(2) 0.25 5.1(5) 1. 0
Cl1 Cl1- 4 c 0 0.141(2) 0.25 2.2(5) 1. 0
#End of TTdata_56544-ICSD