
data_56601-ICSD
_database_code_ICSD 56601
_audit_creation_date 2003-04-01
_audit_update_record 2012-08-01
_chemical_name_systematic 'Dicopper(I) manganese tetrathiostannate'
_chemical_formula_structural 'Cu2 Mn (Sn S4)'
_chemical_formula_sum 'Cu2 Mn1 S4 Sn1'
_chemical_name_structure_type Stannite-Cu2FeSnS4
_chemical_name_mineral Unnamed_Chalcopyrite
_exptl_crystal_density_diffrn 4.34
_cell_measurement_temperature 15.2
_cell_length_a 5.514(1)
_cell_length_b 5.514
_cell_length_c 10.789(4)
_cell_angle_alpha 90.
_cell_angle_beta 90.
_cell_angle_gamma 90.
_cell_volume 328.03
_cell_formula_units_Z 2
_symmetry_space_group_name_H-M 'I -4 2 m'
_symmetry_Int_Tables_number 121
_refine_ls_R_factor_all 0.0155
loop_
_symmetry_equiv_pos_site_id
_symmetry_equiv_pos_as_xyz
1 '-y, -x, z'
2 'y, x, z'
3 'y, -x, -z'
4 '-y, x, -z'
5 'x, -y, -z'
6 '-x, y, -z'
7 '-x, -y, z'
8 'x, y, z'
9 '-y+1/2, -x+1/2, z+1/2'
10 'y+1/2, x+1/2, z+1/2'
11 'y+1/2, -x+1/2, -z+1/2'
12 '-y+1/2, x+1/2, -z+1/2'
13 'x+1/2, -y+1/2, -z+1/2'
14 '-x+1/2, y+1/2, -z+1/2'
15 '-x+1/2, -y+1/2, z+1/2'
16 'x+1/2, y+1/2, z+1/2'
loop_
_atom_type_symbol
_atom_type_oxidation_number
Cu1+ 1
Mn2+ 2
Sn4+ 4
S2- -2
loop_
_atom_site_label
_atom_site_type_symbol
_atom_site_symmetry_multiplicity
_atom_site_Wyckoff_symbol
_atom_site_fract_x
_atom_site_fract_y
_atom_site_fract_z
_atom_site_B_iso_or_equiv
_atom_site_occupancy
_atom_site_attached_hydrogens
Cu1 Cu1+ 4 d 0 0.5 0.25 . 1. 0
Mn1 Mn2+ 2 a 0 0 0 . 1. 0
Sn1 Sn4+ 2 b 0 0 0.5 . 1. 0
S1 S2- 8 i 0.25206(10) 0.25206 0.13295(8) . 1. 0
loop_
_atom_site_aniso_label
_atom_site_aniso_type_symbol
_atom_site_aniso_B_11
_atom_site_aniso_B_22
_atom_site_aniso_B_33
_atom_site_aniso_B_12
_atom_site_aniso_B_13
_atom_site_aniso_B_23
Cu1 Cu1+ 0.220(9) 0.220(9) 0.262(12) 0 0 0
Mn1 Mn2+ 0.23(2) 0.34 0.279(31) 0 0 0
Sn1 Sn4+ 0.104(12) 0.104 0.126(17) 0 0 0
S1 S2- 0.287(21) 0.287 0.252(250) 0 0 0
