
#(C) 2017 by FIZ Karlsruhe - Leibniz Institute for Information Infrastructure.  All rights reserved.
data_56822-ICSD
_database_code_ICSD 56822
_audit_creation_date 2003-04-01
_chemical_name_systematic 'Barium tetrahydroxopalladate hydrate'
_chemical_formula_structural 'Ba (Pd (O H)4) (H2 O)'
_chemical_formula_sum 'H6 Ba1 O5 Pd1'
_exptl_crystal_density_diffrn 3.88
_publ_section_title
'Synthesis and structure of hydroxopalladates(II) of alkaline earth metals'
loop_
_citation_id
_citation_journal_full
_citation_year
_citation_journal_volume
_citation_page_first
_citation_page_last
_citation_journal_id_ASTM
primary 'Zhurnal Neorganicheskoi Khimii' 1991 36 134 140 ZNOKAQ
loop_
_publ_author_name
'Zaitsev, B.E.'
'Ivanov-Emin, B.N.'
'Petrishcheva, L.N.'
'Il'inets, A.M.'
'Baturin, N.A.'
'Regel', L.L.'
'Dolganev, V.P.'
_cell_length_a 5.529(1)
_cell_length_b 8.509(3)
_cell_length_c 6.359(2)
_cell_angle_alpha 90.
_cell_angle_beta 90.
_cell_angle_gamma 109.17(5)
_cell_volume 282.58
_cell_formula_units_Z 2
_symmetry_space_group_name_H-M 'P 1 1 2/n'
_symmetry_Int_Tables_number 13
loop_
_symmetry_equiv_pos_site_id
_symmetry_equiv_pos_as_xyz
1 'x+1/2, y+1/2, -z'
2 '-x, -y, -z'
3 '-x+1/2, -y+1/2, z'
4 'x, y, z'
loop_
_atom_type_symbol
_atom_type_oxidation_number
Ba2+ 2
Pd2+ 2
O2- -2
H1+ 1
loop_
_atom_site_label
_atom_site_type_symbol
_atom_site_symmetry_multiplicity
_atom_site_Wyckoff_symbol
_atom_site_fract_x
_atom_site_fract_y
_atom_site_fract_z
_atom_site_B_iso_or_equiv
_atom_site_occupancy
_atom_site_attached_hydrogens
Ba1 Ba2+ 2 e 0.25 0.25 0.534 1.35 1. 0
Pd1 Pd2+ 2 a 0.5 0.5 0 1.19(1) 1. 0
O1 O2- 4 g -.156 0.019 0.723 1.8 1. 0
O2 O2- 4 g 0.169 0.455 0.853 1.8 1. 0
O3 O2- 2 f 0.75 0.25 0.353 3.4 1. 0
#End of TTdata_56822-ICSD