
#(C) 2017 by FIZ Karlsruhe - Leibniz Institute for Information Infrastructure.  All rights reserved.
data_57484-ICSD
_database_code_ICSD 57484
_audit_creation_date 2003-10-01
_audit_update_record 2007-08-01
_chemical_name_systematic 'Ruthenium titanium silicide (1/1/1)'
_chemical_formula_structural 'Ru Ti Si'
_chemical_formula_sum 'Ru1 Si1 Ti1'
_chemical_name_structure_type TiNiSi-MgSrSi
_exptl_crystal_density_diffrn 6.83
_publ_section_title
'Ternary equiatomic transition metal silicides and germanides'
loop_
_citation_id
_citation_journal_full
_citation_year
_citation_journal_volume
_citation_page_first
_citation_page_last
_citation_journal_id_ASTM
primary 'Journal of Solid State Chemistry' 1972 4 123 130 JSSCBI
loop_
_publ_author_name
'Johnson, V.'
'Jeitschko, W.'
_cell_length_a 6.2443(3)
_cell_length_b 3.8183(3)
_cell_length_c 7.2257(5)
_cell_angle_alpha 90.
_cell_angle_beta 90.
_cell_angle_gamma 90.
_cell_volume 172.28
_cell_formula_units_Z 4
_symmetry_space_group_name_H-M 'P n m a'
_symmetry_Int_Tables_number 62
loop_
_symmetry_equiv_pos_site_id
_symmetry_equiv_pos_as_xyz
1 'x+1/2, y, -z+1/2'
2 'x, -y+1/2, z'
3 '-x+1/2, y+1/2, z+1/2'
4 '-x, -y, -z'
5 '-x+1/2, -y, z+1/2'
6 '-x, y+1/2, -z'
7 'x+1/2, -y+1/2, -z+1/2'
8 'x, y, z'
loop_
_atom_type_symbol
_atom_type_oxidation_number
Ru0+ 0
Ti0+ 0
Si0+ 0
loop_
_atom_site_label
_atom_site_type_symbol
_atom_site_symmetry_multiplicity
_atom_site_Wyckoff_symbol
_atom_site_fract_x
_atom_site_fract_y
_atom_site_fract_z
_atom_site_B_iso_or_equiv
_atom_site_occupancy
_atom_site_attached_hydrogens
Ru1 Ru0+ 4 c 0.142 0.25 0.5609 . 1. 0
Ti1 Ti0+ 4 c 0.0212 0.25 0.1803 . 1. 0
Si1 Si0+ 4 c 0.7651 0.25 0.6229 . 1. 0
#End of TTdata_57484-ICSD