
#(C) 2017 by FIZ Karlsruhe - Leibniz Institute for Information Infrastructure.  All rights reserved.
data_57518-ICSD
_database_code_ICSD 57518
_audit_creation_date 2003-10-01
_audit_update_record 2007-04-01
_chemical_name_systematic 'Aluminium barium iron (9/1/2)'
_chemical_formula_structural 'Al9 Ba Fe2'
_chemical_formula_sum 'Al9 Ba1 Fe2'
_chemical_name_structure_type Al9Co2Sr
_exptl_crystal_density_diffrn 3.75
_publ_section_title

;
Zur Kenntnis des Ba Fe2 Al9 -Strukturtyps: Ternaere Aluminide A T2 Al9 mit A=
Ba, Sr und T= Fe, Co, Ni
;
loop_
_citation_id
_citation_journal_full
_citation_year
_citation_journal_volume
_citation_page_first
_citation_page_last
_citation_journal_id_ASTM
primary 'Journal of the Less-Common Metals' 1975 40 91 96 JCOMAH
loop_
_publ_author_name
'Turban, K.'
'Schaefer, H.'
_cell_length_a 8.04
_cell_length_b 8.04
_cell_length_c 3.89
_cell_angle_alpha 90.
_cell_angle_beta 90.
_cell_angle_gamma 120.
_cell_volume 217.77
_cell_formula_units_Z 1
_symmetry_space_group_name_H-M 'P 6/m m m'
_symmetry_Int_Tables_number 191
_refine_ls_R_factor_all 0.177
loop_
_symmetry_equiv_pos_site_id
_symmetry_equiv_pos_as_xyz
1 '-x, -x+y, -z'
2 'x-y, -y, -z'
3 'y, x, -z'
4 '-x+y, -x, -z'
5 '-y, x-y, -z'
6 'x, y, -z'
7 'x, x-y, -z'
8 '-x+y, y, -z'
9 '-y, -x, -z'
10 'x-y, x, -z'
11 'y, -x+y, -z'
12 '-x, -y, -z'
13 'x, x-y, z'
14 '-x+y, y, z'
15 '-y, -x, z'
16 'x-y, x, z'
17 'y, -x+y, z'
18 '-x, -y, z'
19 '-x, -x+y, z'
20 'x-y, -y, z'
21 'y, x, z'
22 '-x+y, -x, z'
23 '-y, x-y, z'
24 'x, y, z'
loop_
_atom_type_symbol
_atom_type_oxidation_number
Al0+ 0
Ba0+ 0
Fe0+ 0
loop_
_atom_site_label
_atom_site_type_symbol
_atom_site_symmetry_multiplicity
_atom_site_Wyckoff_symbol
_atom_site_fract_x
_atom_site_fract_y
_atom_site_fract_z
_atom_site_B_iso_or_equiv
_atom_site_occupancy
_atom_site_attached_hydrogens
Al1 Al0+ 3 f 0.5 0 0 . 1. 0
Al2 Al0+ 6 m 0.212 0.424 0.5 . 1. 0
Ba1 Ba0+ 1 a 0 0 0 . 1. 0
Fe1 Fe0+ 2 c 0.3333 0.6667 0 . 1. 0
#End of TTdata_57518-ICSD