
#(C) 2017 by FIZ Karlsruhe - Leibniz Institute for Information Infrastructure.  All rights reserved.
data_57535-ICSD
_database_code_ICSD 57535
_audit_creation_date 2004-10-01
_audit_update_record 2008-08-01
_chemical_name_systematic 'Aluminum calcium cobalt (9/1/2)'
_chemical_formula_structural 'Al9 Ca Co2'
_chemical_formula_sum 'Al9 Ca1 Co2'
_chemical_name_structure_type Al9Co2Sr
_exptl_crystal_density_diffrn 3.
_publ_section_title 'Phase equilibria in the Ca - Co(Ni) - Al systems at 700 K'
loop_
_citation_id
_citation_journal_full
_citation_year
_citation_journal_volume
_citation_page_first
_citation_page_last
_citation_journal_id_ASTM
primary 'Izvestiya Akademii Nauk SSSR, Metally' 1988 1988 185 187 IZNMAQ
loop_
_publ_author_name
'Manyako, M.B.'
'Yanson, T.I.'
'Zarechnyuk, O.S.'
_cell_length_a 8.117(7)
_cell_length_b 8.117
_cell_length_c 3.89(1)
_cell_angle_alpha 90.
_cell_angle_beta 90.
_cell_angle_gamma 120.
_cell_volume 221.96
_cell_formula_units_Z 1
_symmetry_space_group_name_H-M 'P 6/m m m'
_symmetry_Int_Tables_number 191
_refine_ls_R_factor_all 0.119
loop_
_symmetry_equiv_pos_site_id
_symmetry_equiv_pos_as_xyz
1 '-x, -x+y, -z'
2 'x-y, -y, -z'
3 'y, x, -z'
4 '-x+y, -x, -z'
5 '-y, x-y, -z'
6 'x, y, -z'
7 'x, x-y, -z'
8 '-x+y, y, -z'
9 '-y, -x, -z'
10 'x-y, x, -z'
11 'y, -x+y, -z'
12 '-x, -y, -z'
13 'x, x-y, z'
14 '-x+y, y, z'
15 '-y, -x, z'
16 'x-y, x, z'
17 'y, -x+y, z'
18 '-x, -y, z'
19 '-x, -x+y, z'
20 'x-y, -y, z'
21 'y, x, z'
22 '-x+y, -x, z'
23 '-y, x-y, z'
24 'x, y, z'
loop_
_atom_type_symbol
_atom_type_oxidation_number
Al0+ 0
Ca0+ 0
Co0+ 0
loop_
_atom_site_label
_atom_site_type_symbol
_atom_site_symmetry_multiplicity
_atom_site_Wyckoff_symbol
_atom_site_fract_x
_atom_site_fract_y
_atom_site_fract_z
_atom_site_B_iso_or_equiv
_atom_site_occupancy
_atom_site_attached_hydrogens
Al1 Al0+ 3 f 0.5 0 0 2.2(2) 1. 0
Al2 Al0+ 6 m 0.211 0.422 0.5 1.3(3) 1. 0
Ca1 Ca0+ 1 a 0 0 0 3.4(9) 1. 0
Co1 Co0+ 2 c 0.3333 0.6667 0 2.5(4) 1. 0
#End of TTdata_57535-ICSD