
#(C) 2017 by FIZ Karlsruhe - Leibniz Institute for Information Infrastructure.  All rights reserved.
data_57539-ICSD
_database_code_ICSD 57539
_audit_creation_date 2003-10-01
_audit_update_record 2012-08-01
_chemical_name_systematic 'Aluminium calcium copper (8/1/4)'
_chemical_formula_structural 'Al8 Ca Cu4'
_chemical_formula_sum 'Al8 Ca1 Cu4'
_chemical_name_structure_type ThMn12
_exptl_crystal_density_diffrn 4.23
_publ_section_title 'Neue Uebergangsmetallaluminide des Calciums'
loop_
_citation_id
_citation_journal_full
_citation_year
_citation_journal_volume
_citation_page_first
_citation_page_last
_citation_journal_id_ASTM
primary 'Journal of the Less-Common Metals' 1984 99 173 185 JCOMAH
loop_
_publ_author_name
'Cordier, G.'
'Czech, E.'
'Ochmann, H.'
'Schaefer, H.'
_cell_length_a 8.823(1)
_cell_length_b 8.823
_cell_length_c 5.151(1)
_cell_angle_alpha 90.
_cell_angle_beta 90.
_cell_angle_gamma 90.
_cell_volume 400.98
_cell_formula_units_Z 2
_symmetry_space_group_name_H-M 'I 4/m m m'
_symmetry_Int_Tables_number 139
_refine_ls_R_factor_all 0.068
loop_
_symmetry_equiv_pos_site_id
_symmetry_equiv_pos_as_xyz
1 'y, x, -z'
2 '-y, -x, -z'
3 '-y, x, -z'
4 'y, -x, -z'
5 '-x, y, -z'
6 'x, -y, -z'
7 'x, y, -z'
8 '-x, -y, -z'
9 '-y, -x, z'
10 'y, x, z'
11 'y, -x, z'
12 '-y, x, z'
13 'x, -y, z'
14 '-x, y, z'
15 '-x, -y, z'
16 'x, y, z'
17 'y+1/2, x+1/2, -z+1/2'
18 '-y+1/2, -x+1/2, -z+1/2'
19 '-y+1/2, x+1/2, -z+1/2'
20 'y+1/2, -x+1/2, -z+1/2'
21 '-x+1/2, y+1/2, -z+1/2'
22 'x+1/2, -y+1/2, -z+1/2'
23 'x+1/2, y+1/2, -z+1/2'
24 '-x+1/2, -y+1/2, -z+1/2'
25 '-y+1/2, -x+1/2, z+1/2'
26 'y+1/2, x+1/2, z+1/2'
27 'y+1/2, -x+1/2, z+1/2'
28 '-y+1/2, x+1/2, z+1/2'
29 'x+1/2, -y+1/2, z+1/2'
30 '-x+1/2, y+1/2, z+1/2'
31 '-x+1/2, -y+1/2, z+1/2'
32 'x+1/2, y+1/2, z+1/2'
loop_
_atom_type_symbol
_atom_type_oxidation_number
Al0+ 0
Ca0+ 0
Cu0+ 0
loop_
_atom_site_label
_atom_site_type_symbol
_atom_site_symmetry_multiplicity
_atom_site_Wyckoff_symbol
_atom_site_fract_x
_atom_site_fract_y
_atom_site_fract_z
_atom_site_B_iso_or_equiv
_atom_site_occupancy
_atom_site_attached_hydrogens
Al1 Al0+ 8 i 0.3474(6) 0 0 0.0073(10) 1. 0
Al2 Al0+ 8 j 0.2756(5) 0.5 0 0.0010(9) 1. 0
Ca1 Ca0+ 2 a 0 0 0 0.0040(12) 1. 0
Cu1 Cu0+ 8 f 0.25 0.25 0.25 0.0062(5) 1. 0
#End of TTdata_57539-ICSD