
#(C) 2017 by FIZ Karlsruhe - Leibniz Institute for Information Infrastructure.  All rights reserved.
data_57645-ICSD
_database_code_ICSD 57645
_audit_creation_date 2003-10-01
_chemical_name_systematic 'Aluminium cobalt yttrium (2/1/1)'
_chemical_formula_structural 'Al2 Co Y'
_chemical_formula_sum 'Al2 Co1 Y1'
_chemical_name_structure_type Al2CuMg
_exptl_crystal_density_diffrn 4.58
_publ_section_title
'New representatives of Mg Cu Al2 and Y Ni Al4 structural types'
loop_
_citation_id
_citation_journal_full
_citation_year
_citation_journal_volume
_citation_page_first
_citation_page_last
_citation_journal_id_ASTM
primary

;
Dopovidi Akademii Nauk Ukrains'koi RSR, Seriya A: Fiziko-Tekhnichni ta
Matematichni Nauki
; 1973 1973 568 570 DUKABM
loop_
_publ_author_name
'Rykhal', R.M.'
'Zarechnyuk, O.S.'
'Pyshchik, A.V.'
_cell_length_a 4.08
_cell_length_b 10.15
_cell_length_c 7.06
_cell_angle_alpha 90.
_cell_angle_beta 90.
_cell_angle_gamma 90.
_cell_volume 292.37
_cell_formula_units_Z 4
_symmetry_space_group_name_H-M 'C m c m'
_symmetry_Int_Tables_number 63
loop_
_symmetry_equiv_pos_site_id
_symmetry_equiv_pos_as_xyz
1 '-x, y, -z+1/2'
2 '-x, -y, z+1/2'
3 '-x, y, z'
4 '-x, -y, -z'
5 'x, -y, z+1/2'
6 'x, y, -z+1/2'
7 'x, -y, -z'
8 'x, y, z'
9 '-x+1/2, y+1/2, -z+1/2'
10 '-x+1/2, -y+1/2, z+1/2'
11 '-x+1/2, y+1/2, z'
12 '-x+1/2, -y+1/2, -z'
13 'x+1/2, -y+1/2, z+1/2'
14 'x+1/2, y+1/2, -z+1/2'
15 'x+1/2, -y+1/2, -z'
16 'x+1/2, y+1/2, z'
loop_
_atom_type_symbol
_atom_type_oxidation_number
Al0+ 0
Co0+ 0
Y0+ 0
loop_
_atom_site_label
_atom_site_type_symbol
_atom_site_symmetry_multiplicity
_atom_site_Wyckoff_symbol
_atom_site_fract_x
_atom_site_fract_y
_atom_site_fract_z
_atom_site_B_iso_or_equiv
_atom_site_occupancy
_atom_site_attached_hydrogens
Al1 Al0+ 8 f 0 0.348 0.044 . 1. 0
Co1 Co0+ 4 c 0 0.787 0.25 . 1. 0
Y1 Y0+ 4 c 0 0.061 0.25 . 1. 0
#End of TTdata_57645-ICSD