
#(C) 2017 by FIZ Karlsruhe - Leibniz Institute for Information Infrastructure.  All rights reserved.
data_58001-ICSD
_database_code_ICSD 58001
_audit_creation_date 2003-10-01
_audit_update_record 2017-08-01
_chemical_name_systematic 'Aluminium molybdenum (8/3)'
_chemical_formula_structural 'Al8 Mo3'
_chemical_formula_sum 'Al8 Mo3'
_chemical_name_structure_type Al8Mo3
_exptl_crystal_density_diffrn 5.08
_publ_section_title 'Einige Strukturdaten metallischer Phasen (7)'
loop_
_citation_id
_citation_journal_full
_citation_year
_citation_journal_volume
_citation_page_first
_citation_page_last
_citation_journal_id_ASTM
primary Naturwissenschaften 1962 49 57 57 NATWAY
loop_
_publ_author_name
'Schubert, K.'
'Meissner, H.G.'
'Poetzschke, M.'
'Rossteutscher, W.'
'Stolz, E.'
_cell_length_a 9.164
_cell_length_b 3.639
_cell_length_c 10.04
_cell_angle_alpha 90.
_cell_angle_beta 100.5
_cell_angle_gamma 90.
_cell_volume 329.21
_cell_formula_units_Z 2
_symmetry_space_group_name_H-M 'C 1 2/m 1'
_symmetry_Int_Tables_number 12
_refine_ls_R_factor_all 0.063
loop_
_symmetry_equiv_pos_site_id
_symmetry_equiv_pos_as_xyz
1 '-x, y, -z'
2 '-x, -y, -z'
3 'x, -y, z'
4 'x, y, z'
5 '-x+1/2, y+1/2, -z'
6 '-x+1/2, -y+1/2, -z'
7 'x+1/2, -y+1/2, z'
8 'x+1/2, y+1/2, z'
loop_
_atom_type_symbol
_atom_type_oxidation_number
Al0+ 0
Mo0+ 0
loop_
_atom_site_label
_atom_site_type_symbol
_atom_site_symmetry_multiplicity
_atom_site_Wyckoff_symbol
_atom_site_fract_x
_atom_site_fract_y
_atom_site_fract_z
_atom_site_B_iso_or_equiv
_atom_site_occupancy
_atom_site_attached_hydrogens
Al1 Al0+ 4 i 0.182 0 0.273 . 1. 0
Al2 Al0+ 4 i 0.273 0 0.909 . 1. 0
Al3 Al0+ 4 i 0.364 0 0.545 . 1. 0
Al4 Al0+ 4 i 0.455 0 0.182 . 1. 0
Mo1 Mo0+ 2 a 0 0 0 . 1. 0
Mo2 Mo0+ 4 i 0.092 0 0.659 . 1. 0
#End of TTdata_58001-ICSD