
#(C) 2017 by FIZ Karlsruhe - Leibniz Institute for Information Infrastructure.  All rights reserved.
data_58041-ICSD
_database_code_ICSD 58041
_audit_creation_date 2003-10-01
_chemical_name_systematic 'Aluminium nickel (3/5)'
_chemical_formula_structural 'Al3 Ni5'
_chemical_formula_sum 'Al3 Ni5'
_chemical_name_structure_type Ga3Pt5
_exptl_crystal_density_diffrn 6.73
_publ_section_title
'A new ordered phase in tempered 63.8Ni - 1Co - Al martensite'
loop_
_citation_id
_citation_journal_full
_citation_year
_citation_journal_volume
_citation_page_first
_citation_page_last
_citation_journal_id_ASTM
primary 'Transactions of the Japan Institute of Metals' 1978 19 571 580 TJIMAA
loop_
_publ_author_name
'Enami, K.'
'Nenno, S.'
_cell_length_a 7.44
_cell_length_b 6.68
_cell_length_c 3.72
_cell_angle_alpha 90.
_cell_angle_beta 90.
_cell_angle_gamma 90.
_cell_volume 184.88
_cell_formula_units_Z 2
_symmetry_space_group_name_H-M 'C m m m'
_symmetry_Int_Tables_number 65
loop_
_symmetry_equiv_pos_site_id
_symmetry_equiv_pos_as_xyz
1 'x, -y, z'
2 '-x, y, z'
3 'x, y, -z'
4 '-x, -y, -z'
5 '-x, y, -z'
6 'x, -y, -z'
7 '-x, -y, z'
8 'x, y, z'
9 'x+1/2, -y+1/2, z'
10 '-x+1/2, y+1/2, z'
11 'x+1/2, y+1/2, -z'
12 '-x+1/2, -y+1/2, -z'
13 '-x+1/2, y+1/2, -z'
14 'x+1/2, -y+1/2, -z'
15 '-x+1/2, -y+1/2, z'
16 'x+1/2, y+1/2, z'
loop_
_atom_type_symbol
_atom_type_oxidation_number
Al0+ 0
Ni0+ 0
loop_
_atom_site_label
_atom_site_type_symbol
_atom_site_symmetry_multiplicity
_atom_site_Wyckoff_symbol
_atom_site_fract_x
_atom_site_fract_y
_atom_site_fract_z
_atom_site_B_iso_or_equiv
_atom_site_occupancy
_atom_site_attached_hydrogens
Al1 Al0+ 2 b 0.5 0 0 . 1. 0
Al2 Al0+ 4 h 0.25 0 0.5 . 1. 0
Ni1 Ni0+ 2 a 0 0 0 . 1. 0
Ni2 Ni0+ 4 e 0.25 0.25 0 . 1. 0
Ni3 Ni0+ 4 j 0 0.25 0.5 . 1. 0
#End of TTdata_58041-ICSD