
#(C) 2017 by FIZ Karlsruhe - Leibniz Institute for Information Infrastructure.  All rights reserved.
data_58110-ICSD
_database_code_ICSD 58110
_audit_creation_date 2003-10-01
_audit_update_record 2007-08-01
_chemical_name_systematic 'Aluminium osmium (13/4)'
_chemical_formula_structural 'Al13 Os4'
_chemical_formula_sum 'Al13 Os4'
_exptl_crystal_density_diffrn 7.03
_publ_section_title 'The crystal structure of Os4 Al13'
loop_
_citation_id
_citation_journal_full
_citation_year
_citation_journal_volume
_citation_page_first
_citation_page_last
_citation_journal_id_ASTM
primary 'Acta Chemica Scandinavica (1-27,1973-42,1988)' 1964 18 2294 2302 ACSAA4
loop_
_publ_author_name
'Edshammar, L.E.'
_cell_length_a 17.64(1)
_cell_length_b 4.228(2)
_cell_length_c 7.773(2)
_cell_angle_alpha 90.
_cell_angle_beta 115(15)
_cell_angle_gamma 90.
_cell_volume 525.41
_cell_formula_units_Z 2
_symmetry_space_group_name_H-M 'C 1 2/m 1'
_symmetry_Int_Tables_number 12
_refine_ls_R_factor_all 0.103
loop_
_symmetry_equiv_pos_site_id
_symmetry_equiv_pos_as_xyz
1 '-x, y, -z'
2 '-x, -y, -z'
3 'x, -y, z'
4 'x, y, z'
5 '-x+1/2, y+1/2, -z'
6 '-x+1/2, -y+1/2, -z'
7 'x+1/2, -y+1/2, z'
8 'x+1/2, y+1/2, z'
loop_
_atom_type_symbol
_atom_type_oxidation_number
Al0+ 0
Os0+ 0
loop_
_atom_site_label
_atom_site_type_symbol
_atom_site_symmetry_multiplicity
_atom_site_Wyckoff_symbol
_atom_site_fract_x
_atom_site_fract_y
_atom_site_fract_z
_atom_site_B_iso_or_equiv
_atom_site_occupancy
_atom_site_attached_hydrogens
Al1 Al0+ 2 b 0 0.5 0 0.68(33) 1. 0
Al2 Al0+ 4 i 0.587(1) 0 0.368(2) 1.42(28) 1. 0
Al3 Al0+ 4 i 0.257(1) 0 0.613(2) 1.00(26) 1. 0
Al4 Al0+ 4 i 0.132(1) 0 0.162(2) 0.99(26) 1. 0
Al5 Al0+ 4 i 0.790(1) 0 0.087(2) 1.60(29) 1. 0
Al6 Al0+ 4 i 0.914(1) 0 0.432(2) 0.95(25) 1. 0
Al7 Al0+ 4 i 0.409(1) 0 0.194(2) 1.60(28) 1. 0
Os1 Os0+ 4 i 0.2940(1) 0 0.2915(3) 0.22(3) 1. 0
Os2 Os0+ 4 i 0.9919(1) 0 0.1947(3) 0.22(3) 1. 0
#End of TTdata_58110-ICSD