
#(C) 2017 by FIZ Karlsruhe - Leibniz Institute for Information Infrastructure.  All rights reserved.
data_58118-ICSD
_database_code_ICSD 58118
_audit_creation_date 2003-10-01
_audit_update_record 2017-08-01
_chemical_name_systematic 'Aluminium palladium (3/5)'
_chemical_formula_structural 'Al3 Pd5'
_chemical_formula_sum 'Al3 Pd5'
_chemical_name_structure_type Ge3Rh5
_exptl_crystal_density_diffrn 9.07
_publ_section_title

;
Zum Aufbau der Systeme Kobalt-Gallium, Palladium-Gallium, Palladium- Zinn und
verwandter Legierungen
;
loop_
_citation_id
_citation_journal_full
_citation_year
_citation_journal_volume
_citation_page_first
_citation_page_last
_citation_journal_id_ASTM
primary 'Zeitschrift fuer Metallkunde' 1959 50 534 540 ZEMTAE
loop_
_publ_author_name
'Schubert, Konrad'
'Lukas, Hans Leo'
'Meissner, Hans-Georg'
'Bhan, Suray'
_cell_length_a 5.35
_cell_length_b 10.41
_cell_length_c 4.03
_cell_angle_alpha 90.
_cell_angle_beta 90.
_cell_angle_gamma 90.
_cell_volume 224.44
_cell_formula_units_Z 2
_symmetry_space_group_name_H-M 'P b a m'
_symmetry_Int_Tables_number 55
loop_
_symmetry_equiv_pos_site_id
_symmetry_equiv_pos_as_xyz
1 'x+1/2, -y+1/2, z'
2 '-x+1/2, y+1/2, z'
3 'x, y, -z'
4 '-x, -y, -z'
5 '-x+1/2, y+1/2, -z'
6 'x+1/2, -y+1/2, -z'
7 '-x, -y, z'
8 'x, y, z'
loop_
_atom_type_symbol
_atom_type_oxidation_number
Al0+ 0
Pd0+ 0
loop_
_atom_site_label
_atom_site_type_symbol
_atom_site_symmetry_multiplicity
_atom_site_Wyckoff_symbol
_atom_site_fract_x
_atom_site_fract_y
_atom_site_fract_z
_atom_site_B_iso_or_equiv
_atom_site_occupancy
_atom_site_attached_hydrogens
Al1 Al0+ 2 a 0 0 0 . 1. 0
Al2 Al0+ 4 h 0.32 0.39 0.5 . 1. 0
Pd1 Pd0+ 4 h 0.34 0.15 0.5 . 1. 0
Pd2 Pd0+ 2 c 0 0.5 0 . 1. 0
Pd3 Pd0+ 4 g 0.09 0.23 0 . 1. 0
#End of TTdata_58118-ICSD