
#(C) 2017 by FIZ Karlsruhe - Leibniz Institute for Information Infrastructure.  All rights reserved.
data_58157-ICSD
_database_code_ICSD 58157
_audit_creation_date 2003-10-01
_chemical_name_systematic 'Aluminium ruthenium (6/1)'
_chemical_formula_structural 'Al6 Ru'
_chemical_formula_sum 'Al6 Ru1'
_chemical_name_structure_type Al6Mn
_exptl_crystal_density_diffrn 3.97
_publ_section_title 'The crystal structure of Ru Al6'
loop_
_citation_id
_citation_journal_full
_citation_year
_citation_journal_volume
_citation_page_first
_citation_page_last
_citation_journal_id_ASTM
primary 'Acta Chemica Scandinavica (1-27,1973-42,1988)' 1968 22 2374 2400 ACSAA4
loop_
_publ_author_name
'Edshammar, L.E.'
_cell_length_a 7.4882(4)
_cell_length_b 6.5559(3)
_cell_length_c 8.9605(5)
_cell_angle_alpha 90.
_cell_angle_beta 90.
_cell_angle_gamma 90.
_cell_volume 439.89
_cell_formula_units_Z 4
_symmetry_space_group_name_H-M 'C m c m'
_symmetry_Int_Tables_number 63
_refine_ls_R_factor_all 0.08
loop_
_symmetry_equiv_pos_site_id
_symmetry_equiv_pos_as_xyz
1 '-x, y, -z+1/2'
2 '-x, -y, z+1/2'
3 '-x, y, z'
4 '-x, -y, -z'
5 'x, -y, z+1/2'
6 'x, y, -z+1/2'
7 'x, -y, -z'
8 'x, y, z'
9 '-x+1/2, y+1/2, -z+1/2'
10 '-x+1/2, -y+1/2, z+1/2'
11 '-x+1/2, y+1/2, z'
12 '-x+1/2, -y+1/2, -z'
13 'x+1/2, -y+1/2, z+1/2'
14 'x+1/2, y+1/2, -z+1/2'
15 'x+1/2, -y+1/2, -z'
16 'x+1/2, y+1/2, z'
loop_
_atom_type_symbol
_atom_type_oxidation_number
Al0+ 0
Ru0+ 0
loop_
_atom_site_label
_atom_site_type_symbol
_atom_site_symmetry_multiplicity
_atom_site_Wyckoff_symbol
_atom_site_fract_x
_atom_site_fract_y
_atom_site_fract_z
_atom_site_B_iso_or_equiv
_atom_site_occupancy
_atom_site_attached_hydrogens
Al1 Al0+ 8 e 0.3196(10) 0 0 1.43(14) 1. 0
Al2 Al0+ 8 f 0 0.1416(14) 0.1005(8) 2.02(16) 1. 0
Al3 Al0+ 8 g 0.3171(10) 0.2939(14) 0.25 1.66(15) 1. 0
Ru1 Ru0+ 4 c 0 0.4621(5) 0.25 0.72(9) 1. 0
#End of TTdata_58157-ICSD