
data_58411-ICSD
_database_code_ICSD 58411
_audit_creation_date 2004-04-01
_chemical_name_systematic 'Gold cadmium (1/3)'
_chemical_formula_structural 'Au Cd3'
_chemical_formula_sum 'Au1 Cd3'
_chemical_name_structure_type LaF3(P63mc)
_exptl_crystal_density_diffrn 10.88
_cell_length_a 8.147(2)
_cell_length_b 8.147
_cell_length_c 8.511(2)
_cell_angle_alpha 90.
_cell_angle_beta 90.
_cell_angle_gamma 120.
_cell_volume 489.22
_cell_formula_units_Z 6
_symmetry_space_group_name_H-M 'P 63 c m'
_symmetry_Int_Tables_number 185
_refine_ls_R_factor_all 0.12
loop_
_symmetry_equiv_pos_site_id
_symmetry_equiv_pos_as_xyz
1 'x, x-y, z+1/2'
2 '-x+y, y, z+1/2'
3 '-y, -x, z+1/2'
4 'x-y, x, z+1/2'
5 'y, -x+y, z+1/2'
6 '-x, -y, z+1/2'
7 '-x, -x+y, z'
8 'x-y, -y, z'
9 'y, x, z'
10 '-x+y, -x, z'
11 '-y, x-y, z'
12 'x, y, z'
loop_
_atom_type_symbol
_atom_type_oxidation_number
Au0+ 0
Cd0+ 0
loop_
_atom_site_label
_atom_site_type_symbol
_atom_site_symmetry_multiplicity
_atom_site_Wyckoff_symbol
_atom_site_fract_x
_atom_site_fract_y
_atom_site_fract_z
_atom_site_B_iso_or_equiv
_atom_site_occupancy
_atom_site_attached_hydrogens
Au1 Au0+ 6 c 0.332(1) 0 0.75 1.3 1. 0
Cd1 Cd0+ 2 a 0 0 0.331(3) 2.8 1. 0
Cd2 Cd0+ 4 b 0.3333 0.6667 0.206(2) 3.4 1. 0
Cd3 Cd0+ 6 c 0.292(1) 0 0.078(2) 2. 1. 0
Cd4 Cd0+ 6 c 0.363(2) 0 0.420(2) 2. 1. 0
