
data_58522-ICSD
_database_code_ICSD 58522
_audit_creation_date 2004-04-01
_audit_update_record 2012-08-01
_chemical_name_systematic 'Gold potassium tin (4/1/2)'
_chemical_formula_structural 'Au4 K Sn2'
_chemical_formula_sum 'Au4 K1 Sn2'
_chemical_name_structure_type Au4KSn2
_exptl_crystal_density_diffrn 11.04
_cell_length_a 8.847(4)
_cell_length_b 8.847(4)
_cell_length_c 8.178(4)
_cell_angle_alpha 90.
_cell_angle_beta 90.
_cell_angle_gamma 90.
_cell_volume 640.09
_cell_formula_units_Z 4
_symmetry_space_group_name_H-M 'I -4 c 2'
_symmetry_Int_Tables_number 120
_refine_ls_R_factor_all 0.09
loop_
_symmetry_equiv_pos_site_id
_symmetry_equiv_pos_as_xyz
1 'y, x, -z+1/2'
2 '-y, -x, -z+1/2'
3 'y, -x, -z'
4 '-y, x, -z'
5 'x, -y, z+1/2'
6 '-x, y, z+1/2'
7 '-x, -y, z'
8 'x, y, z'
9 'y+1/2, x+1/2, -z'
10 '-y+1/2, -x+1/2, -z'
11 'y+1/2, -x+1/2, -z+1/2'
12 '-y+1/2, x+1/2, -z+1/2'
13 'x+1/2, -y+1/2, z'
14 '-x+1/2, y+1/2, z'
15 '-x+1/2, -y+1/2, z+1/2'
16 'x+1/2, y+1/2, z+1/2'
loop_
_atom_type_symbol
_atom_type_oxidation_number
Au0+ 0
K0+ 0
Sn0+ 0
loop_
_atom_site_label
_atom_site_type_symbol
_atom_site_symmetry_multiplicity
_atom_site_Wyckoff_symbol
_atom_site_fract_x
_atom_site_fract_y
_atom_site_fract_z
_atom_site_B_iso_or_equiv
_atom_site_occupancy
_atom_site_attached_hydrogens
Au1 Au0+ 16 i 0.1452(5) 0.1575(4) 0.0851(8) . 1. 0
K1 K0+ 4 d 0 0.5 0 . 1. 0
Sn1 Sn0+ 8 e 0.356(2) 0.356 0.25 . 1. 0
loop_
_atom_site_aniso_label
_atom_site_aniso_type_symbol
_atom_site_aniso_U_11
_atom_site_aniso_U_22
_atom_site_aniso_U_33
_atom_site_aniso_U_12
_atom_site_aniso_U_13
_atom_site_aniso_U_23
Au1 Au0+ 0.0010(16) 0.0248(28) 0.0148(14) -0.0032(16) -0.0036(30) 0.0126(39)
K1 K0+ 0.0055(142) 0.0055 0.1267(830) -0.0024(790) 0 0
Sn1 Sn0+ 0.0097(22) 0.0097 0.0059(34) -0.0060(45) 0.0031(205) 0.0031
