
#(C) 2017 by FIZ Karlsruhe - Leibniz Institute for Information Infrastructure.  All rights reserved.
data_58554-ICSD
_database_code_ICSD 58554
_audit_creation_date 2004-04-01
_audit_update_record 2005-10-01
_chemical_name_systematic 'Gold sodium tin (1/1/1)'
_chemical_formula_structural 'Au Na Sn'
_chemical_formula_sum 'Au1 Na1 Sn1'
_chemical_name_structure_type TiNiSi-MgSrSi
_exptl_crystal_density_diffrn 8.21
_publ_section_title 'Die Kristallstrukturen der Phasen Na2 Au Ge und Na Au Sn'
loop_
_citation_id
_citation_journal_full
_citation_year
_citation_journal_volume
_citation_page_first
_citation_page_last
_citation_journal_id_ASTM
primary 'Zeitschrift fuer Anorganische und Allgemeine Chemie (1950) (DE)' 1977
432 95 100 ZAACAB
loop_
_publ_author_name
'Wrobel, G.'
'Schuster, H.U.'
_cell_length_a 7.476
_cell_length_b 8.088
_cell_length_c 4.53
_cell_angle_alpha 90.
_cell_angle_beta 90.
_cell_angle_gamma 90.
_cell_volume 273.91
_cell_formula_units_Z 4
_symmetry_space_group_name_H-M 'P n a m'
_symmetry_Int_Tables_number 62
_refine_ls_R_factor_all 0.083
loop_
_symmetry_equiv_pos_site_id
_symmetry_equiv_pos_as_xyz
1 'x+1/2, -y+1/2, z'
2 'x, y, -z+1/2'
3 '-x+1/2, y+1/2, z+1/2'
4 '-x, -y, -z'
5 '-x+1/2, y+1/2, -z'
6 '-x, -y, z+1/2'
7 'x+1/2, -y+1/2, -z+1/2'
8 'x, y, z'
loop_
_atom_type_symbol
_atom_type_oxidation_number
Au0+ 0
Na0+ 0
Sn0+ 0
loop_
_atom_site_label
_atom_site_type_symbol
_atom_site_symmetry_multiplicity
_atom_site_Wyckoff_symbol
_atom_site_fract_x
_atom_site_fract_y
_atom_site_fract_z
_atom_site_B_iso_or_equiv
_atom_site_occupancy
_atom_site_attached_hydrogens
Au1 Au0+ 4 c 0.2067(3) 0.3697(2) 0.25 . 1. 0
Na1 Na0+ 4 c 0.489(22) 0.664(2) 0.25 . 1. 0
Sn1 Sn0+ 4 c 0.3420(5) 0.0597(3) 0.25 . 1. 0
#End of TTdata_58554-ICSD