
#(C) 2017 by FIZ Karlsruhe - Leibniz Institute for Information Infrastructure.  All rights reserved.
data_58641-ICSD
_database_code_ICSD 58641
_audit_creation_date 2004-04-01
_chemical_name_systematic 'Barium calcium tin (1/1/1)'
_chemical_formula_structural 'Ba Ca Sn'
_chemical_formula_sum 'Ba1 Ca1 Sn1'
_chemical_name_structure_type TiNiSi-MgSrSi
_exptl_crystal_density_diffrn 4.33
_publ_section_title 'Neue intermetallische Verbindungen im anti - Pb Cl2 Typ'
loop_
_citation_id
_citation_journal_full
_citation_year
_citation_journal_volume
_citation_page_first
_citation_page_last
_citation_journal_id_ASTM
primary

;
Zeitschrift fuer Naturforschung, Teil B. Anorganische Chemie, Organische
Chemie (2,1947-32,1977)
; 1975 30 677 680 ZENBAX
loop_
_publ_author_name
'Eisenmann, B.'
'Schaefer, H.'
'Turban, K.'
_cell_length_a 8.83(2)
_cell_length_b 5.31(2)
_cell_length_c 9.69(2)
_cell_angle_alpha 90.
_cell_angle_beta 90.
_cell_angle_gamma 90.
_cell_volume 454.34
_cell_formula_units_Z 4
_symmetry_space_group_name_H-M 'P n m a'
_symmetry_Int_Tables_number 62
_refine_ls_R_factor_all 0.129
loop_
_symmetry_equiv_pos_site_id
_symmetry_equiv_pos_as_xyz
1 'x+1/2, y, -z+1/2'
2 'x, -y+1/2, z'
3 '-x+1/2, y+1/2, z+1/2'
4 '-x, -y, -z'
5 '-x+1/2, -y, z+1/2'
6 '-x, y+1/2, -z'
7 'x+1/2, -y+1/2, -z+1/2'
8 'x, y, z'
loop_
_atom_type_symbol
_atom_type_oxidation_number
Ba0+ 0
Ca0+ 0
Sn0+ 0
loop_
_atom_site_label
_atom_site_type_symbol
_atom_site_symmetry_multiplicity
_atom_site_Wyckoff_symbol
_atom_site_fract_x
_atom_site_fract_y
_atom_site_fract_z
_atom_site_B_iso_or_equiv
_atom_site_occupancy
_atom_site_attached_hydrogens
Ba1 Ba0+ 4 c 0.521 0.25 0.681 . 1. 0
Ca1 Ca0+ 4 c 0.646 0.25 0.07 . 1. 0
Sn1 Sn0+ 4 c 0.274 0.25 0.107 . 1. 0
#End of TTdata_58641-ICSD