
#(C) 2017 by FIZ Karlsruhe - Leibniz Institute for Information Infrastructure.  All rights reserved.
data_58745-ICSD
_database_code_ICSD 58745
_audit_creation_date 2004-04-01
_audit_update_record 2005-10-01
_chemical_name_systematic 'Beryllium titanium (12/1) - subcell'
_chemical_formula_structural 'Be12 Ti'
_chemical_formula_sum 'Be12 Ti1'
_chemical_name_structure_type Fe6Ge6Mg
_exptl_crystal_density_diffrn 2.28
_publ_section_title 'The structure of Ti Be12'
loop_
_citation_id
_citation_journal_full
_citation_year
_citation_journal_volume
_citation_page_first
_citation_page_last
_citation_journal_id_ASTM
primary 'Acta Crystallographica (1,1948-23,1967)' 1952 5 85 93 ACCRA9
loop_
_publ_author_name
'Raeuchle, R.F.'
'Rundle, R.E.'
_cell_length_a 4.23
_cell_length_b 4.23
_cell_length_c 7.33
_cell_angle_alpha 90.
_cell_angle_beta 90.
_cell_angle_gamma 120.
_cell_volume 113.58
_cell_formula_units_Z 1
_symmetry_space_group_name_H-M 'P 6/m m m'
_symmetry_Int_Tables_number 191
loop_
_symmetry_equiv_pos_site_id
_symmetry_equiv_pos_as_xyz
1 '-x, -x+y, -z'
2 'x-y, -y, -z'
3 'y, x, -z'
4 '-x+y, -x, -z'
5 '-y, x-y, -z'
6 'x, y, -z'
7 'x, x-y, -z'
8 '-x+y, y, -z'
9 '-y, -x, -z'
10 'x-y, x, -z'
11 'y, -x+y, -z'
12 '-x, -y, -z'
13 'x, x-y, z'
14 '-x+y, y, z'
15 '-y, -x, z'
16 'x-y, x, z'
17 'y, -x+y, z'
18 '-x, -y, z'
19 '-x, -x+y, z'
20 'x-y, -y, z'
21 'y, x, z'
22 '-x+y, -x, z'
23 '-y, x-y, z'
24 'x, y, z'
loop_
_atom_type_symbol
_atom_type_oxidation_number
Be0+ 0
Ti0+ 0
loop_
_atom_site_label
_atom_site_type_symbol
_atom_site_symmetry_multiplicity
_atom_site_Wyckoff_symbol
_atom_site_fract_x
_atom_site_fract_y
_atom_site_fract_z
_atom_site_B_iso_or_equiv
_atom_site_occupancy
_atom_site_attached_hydrogens
Be1 Be0+ 2 c 0.3333 0.6667 0 . 1. 0
Be2 Be0+ 2 d 0.3333 0.6667 0.5 . 1. 0
Be3 Be0+ 2 e 0 0 0.28 . 1. 0
Be4 Be0+ 6 i 0.5 0 0.25 . 1. 0
Ti1 Ti0+ 1 a 0 0 0 . 1. 0
#End of TTdata_58745-ICSD