
#(C) 2017 by FIZ Karlsruhe - Leibniz Institute for Information Infrastructure.  All rights reserved.
data_58834-ICSD
_database_code_ICSD 58834
_audit_creation_date 2004-04-01
_audit_update_record 2013-08-01
_chemical_name_systematic 'Bismuth lead platinum (1/3/1)'
_chemical_formula_structural 'Bi Pb3 Pt'
_chemical_formula_sum 'Bi1 Pb3 Pt1'
_chemical_name_structure_type BiPb3Pt
_exptl_crystal_density_diffrn 12.75
_publ_section_title 'Kristallstruktur vom Pt Pb3 Bi'
loop_
_citation_id
_citation_journal_full
_citation_year
_citation_journal_volume
_citation_page_first
_citation_page_last
_citation_journal_id_ASTM
primary 'Journal of the Less-Common Metals' 1978 59 P35 P40 JCOMAH
loop_
_publ_author_name
'Matkovic, T.'
'Schubert, K.'
_cell_length_a 11.45
_cell_length_b 11.45
_cell_length_c 4.077
_cell_angle_alpha 90.
_cell_angle_beta 90.
_cell_angle_gamma 90.
_cell_volume 534.5
_cell_formula_units_Z 4
_symmetry_space_group_name_H-M 'P 42/m n m'
_symmetry_Int_Tables_number 136
_refine_ls_R_factor_all 0.058
loop_
_symmetry_equiv_pos_site_id
_symmetry_equiv_pos_as_xyz
1 '-y+1/2, x+1/2, -z+1/2'
2 'y+1/2, -x+1/2, -z+1/2'
3 'y, x, -z'
4 '-y, -x, -z'
5 'y+1/2, -x+1/2, z+1/2'
6 '-y+1/2, x+1/2, z+1/2'
7 '-y, -x, z'
8 'y, x, z'
9 'x+1/2, -y+1/2, -z+1/2'
10 '-x+1/2, y+1/2, -z+1/2'
11 'x, y, -z'
12 '-x, -y, -z'
13 '-x+1/2, y+1/2, z+1/2'
14 'x+1/2, -y+1/2, z+1/2'
15 '-x, -y, z'
16 'x, y, z'
loop_
_atom_type_symbol
_atom_type_oxidation_number
Bi0+ 0
Pb0+ 0
Pt0+ 0
loop_
_atom_site_label
_atom_site_type_symbol
_atom_site_symmetry_multiplicity
_atom_site_Wyckoff_symbol
_atom_site_fract_x
_atom_site_fract_y
_atom_site_fract_z
_atom_site_B_iso_or_equiv
_atom_site_occupancy
_atom_site_attached_hydrogens
Bi1 Bi0+ 4 g 0.2931 0.7069 0 0.022 1. 0
Pb1 Pb0+ 4 f 0.3977 0.3977 0 0.016 1. 0
Pb2 Pb0+ 8 i 0.3298 0.0024 0 0.016 1. 0
Pt1 Pt0+ 4 f 0.0867 0.0867 0 0.015 1. 0
#End of TTdata_58834-ICSD