
#(C) 2017 by FIZ Karlsruhe - Leibniz Institute for Information Infrastructure.  All rights reserved.
data_58846-ICSD
_database_code_ICSD 58846
_audit_creation_date 2004-04-01
_audit_update_record 2011-08-01
_chemical_name_systematic 'Bismuth platinum (2/1) - LT'
_chemical_formula_structural 'Bi2 Pt'
_chemical_formula_sum 'Bi2 Pt1'
_chemical_name_structure_type NiAs2
_exptl_crystal_density_diffrn 13.34
_publ_section_title 'Kristallstruktur von Pt Bi2 * r'
loop_
_citation_id
_citation_journal_full
_citation_year
_citation_journal_volume
_citation_page_first
_citation_page_last
_citation_journal_id_ASTM
primary 'Zeitschrift fuer Metallkunde' 1980 71 581 583 ZEMTAE
loop_
_publ_author_name
'Bhatt, Y.C.'
'Schubert, K.'
_cell_length_a 6.732(2)
_cell_length_b 6.794(2)
_cell_length_c 13.346(2)
_cell_angle_alpha 90.
_cell_angle_beta 90.
_cell_angle_gamma 90.
_cell_volume 610.41
_cell_formula_units_Z 8
_symmetry_space_group_name_H-M 'P b c a'
_symmetry_Int_Tables_number 61
_refine_ls_R_factor_all 0.076
loop_
_symmetry_equiv_pos_site_id
_symmetry_equiv_pos_as_xyz
1 'x+1/2, y, -z+1/2'
2 'x, -y+1/2, z+1/2'
3 '-x+1/2, y+1/2, z'
4 '-x, -y, -z'
5 '-x+1/2, -y, z+1/2'
6 '-x, y+1/2, -z+1/2'
7 'x+1/2, -y+1/2, -z'
8 'x, y, z'
loop_
_atom_type_symbol
_atom_type_oxidation_number
Bi0+ 0
Pt0+ 0
loop_
_atom_site_label
_atom_site_type_symbol
_atom_site_symmetry_multiplicity
_atom_site_Wyckoff_symbol
_atom_site_fract_x
_atom_site_fract_y
_atom_site_fract_z
_atom_site_B_iso_or_equiv
_atom_site_occupancy
_atom_site_attached_hydrogens
Bi1 Bi0+ 8 c 0.1279 0.0384 0.1854 . 1. 0
Bi2 Bi0+ 8 c 0.3611 0.3055 0.4352 . 1. 0
Pt1 Pt0+ 8 c 0.998 0.1668 0.3702 . 1. 0
#End of TTdata_58846-ICSD