
#(C) 2017 by FIZ Karlsruhe - Leibniz Institute for Information Infrastructure.  All rights reserved.
data_58922-ICSD
_database_code_ICSD 58922
_audit_creation_date 2004-04-01
_chemical_name_systematic 'Calcium lead (5/3)'
_chemical_formula_structural 'Ca5 Pb3'
_chemical_formula_sum 'Ca5 Pb3'
_exptl_crystal_density_diffrn 5.1
_publ_section_title

;
Die Kristallstrukturen der intermetallischen Phasen Ca3 Ge, Ca7 Ge, Ca3 Pb und
Ca5 Pb3
;
loop_
_citation_id
_citation_journal_full
_citation_year
_citation_journal_volume
_citation_page_first
_citation_page_last
_citation_journal_id_ASTM
primary 'Zeitschrift fuer Anorganische und Allgemeine Chemie (1950) (DE)' 1963
320 86 100 ZAACAB
loop_
_publ_author_name
'Helleis, O.'
'Kandler, H.'
'Leicht, E.'
'Quiring, W.'
'Woelfel, E.'
_cell_length_a 16.23(2)
_cell_length_b 16.23
_cell_length_c 7.04(6)
_cell_angle_alpha 90.
_cell_angle_beta 90.
_cell_angle_gamma 120.
_cell_volume 1605.98
_cell_formula_units_Z 6
_symmetry_space_group_name_H-M 'P 63 m c'
_symmetry_Int_Tables_number 186
_refine_ls_R_factor_all 0.18
loop_
_symmetry_equiv_pos_site_id
_symmetry_equiv_pos_as_xyz
1 '-x, -x+y, z+1/2'
2 'x-y, -y, z+1/2'
3 'y, x, z+1/2'
4 'x-y, x, z+1/2'
5 'y, -x+y, z+1/2'
6 '-x, -y, z+1/2'
7 'x, x-y, z'
8 '-x+y, y, z'
9 '-y, -x, z'
10 '-x+y, -x, z'
11 '-y, x-y, z'
12 'x, y, z'
loop_
_atom_type_symbol
_atom_type_oxidation_number
Ca0+ 0
Pb0+ 0
loop_
_atom_site_label
_atom_site_type_symbol
_atom_site_symmetry_multiplicity
_atom_site_Wyckoff_symbol
_atom_site_fract_x
_atom_site_fract_y
_atom_site_fract_z
_atom_site_B_iso_or_equiv
_atom_site_occupancy
_atom_site_attached_hydrogens
Ca1 Ca0+ 6 c 0.421 0.579 0.28 2. 1. 0
Ca2 Ca0+ 6 c 0.913 0.087 0.78 2. 1. 0
Ca3 Ca0+ 6 c 0.244 0.756 0.776 2. 1. 0
Ca4 Ca0+ 12 d 0.333 0. 0. 2. 1. 0
Pb1 Pb0+ 6 c 0.13 0.87 0.74 1.5 1. 0
Pb2 Pb0+ 6 c 0.203 0.797 0.25 1.5 1. 0
Pb3 Pb0+ 6 c 0.463 0.537 0.748 1.5 1. 0
#End of TTdata_58922-ICSD