
data_59191-ICSD
_database_code_ICSD 59191
_audit_creation_date 1986-12-03
_audit_update_record 2016-02-01
_chemical_name_systematic 'Barium platinum phosphide (1/1/1)'
_chemical_formula_structural 'Ba Pt P'
_chemical_formula_sum 'Ba1 P1 Pt1'
_chemical_name_structure_type LaIrSi
_exptl_crystal_density_diffrn 8.66
_cell_length_a 6.533(1)
_cell_length_b 6.533(1)
_cell_length_c 6.533(1)
_cell_angle_alpha 90.
_cell_angle_beta 90.
_cell_angle_gamma 90.
_cell_volume 278.83
_cell_formula_units_Z 4
_symmetry_space_group_name_H-M 'P 21 3'
_symmetry_Int_Tables_number 198
_refine_ls_R_factor_all 0.081
loop_
_symmetry_equiv_pos_site_id
_symmetry_equiv_pos_as_xyz
1 '-z+1/2, -x, y+1/2'
2 '-y+1/2, -z, x+1/2'
3 '-x+1/2, -y, z+1/2'
4 '-z, x+1/2, -y+1/2'
5 '-y, z+1/2, -x+1/2'
6 '-x, y+1/2, -z+1/2'
7 'z+1/2, -x+1/2, -y'
8 'y+1/2, -z+1/2, -x'
9 'x+1/2, -y+1/2, -z'
10 'z, x, y'
11 'y, z, x'
12 'x, y, z'
loop_
_atom_type_symbol
_atom_type_oxidation_number
Ba0+ 0
Pt0+ 0
P0+ 0
loop_
_atom_site_label
_atom_site_type_symbol
_atom_site_symmetry_multiplicity
_atom_site_Wyckoff_symbol
_atom_site_fract_x
_atom_site_fract_y
_atom_site_fract_z
_atom_site_B_iso_or_equiv
_atom_site_occupancy
_atom_site_attached_hydrogens
Ba1 Ba0+ 4 a 0.1373(2) 0.1373(2) 0.1373(2) 0.0090(7) 1. 0
Pt1 Pt0+ 4 a 0.8487(2) 0.8487(2) 0.8487(2) 0.0071(4) 1. 0
P1 P0+ 4 a 0.416(1) 0.416(1) 0.416(1) 0.0100(25) 1. 0
