
#(C) 2017 by FIZ Karlsruhe - Leibniz Institute for Information Infrastructure.  All rights reserved.
data_59375-ICSD
_database_code_ICSD 59375
_audit_creation_date 1999-06-02
_chemical_name_systematic 'Molybdenum telluride (6/8)'
_chemical_formula_structural 'Mo6 Te8'
_chemical_formula_sum 'Mo6 Te8'
_chemical_name_structure_type Mo3Se4
_exptl_crystal_density_diffrn 7.59
_publ_section_title 'Hexamolybdenum octatelluride, Mo6 Te8'
loop_
_citation_id
_citation_journal_full
_citation_year
_citation_journal_volume
_citation_page_first
_citation_page_last
_citation_journal_id_ASTM
primary 'Acta Crystallographica, Section C: Crystal Structure Communications'
1998 54 709 710 ACSCEE
loop_
_publ_author_name
'Miller, G.J.'
'Smith, M.'
_cell_length_a 10.179(1)
_cell_length_b 10.179(1)
_cell_length_c 11.674(2)
_cell_angle_alpha 90.
_cell_angle_beta 90.
_cell_angle_gamma 120.
_cell_volume 1047.52
_cell_formula_units_Z 3
_symmetry_space_group_name_H-M 'R -3 H'
_symmetry_Int_Tables_number 148
_refine_ls_R_factor_all 0.039
loop_
_symmetry_equiv_pos_site_id
_symmetry_equiv_pos_as_xyz
1 'x-y, x, -z'
2 'y, -x+y, -z'
3 '-x, -y, -z'
4 '-x+y, -x, z'
5 '-y, x-y, z'
6 'x, y, z'
7 'x-y+2/3, x+1/3, -z+1/3'
8 'y+2/3, -x+y+1/3, -z+1/3'
9 '-x+2/3, -y+1/3, -z+1/3'
10 '-x+y+2/3, -x+1/3, z+1/3'
11 '-y+2/3, x-y+1/3, z+1/3'
12 'x+2/3, y+1/3, z+1/3'
13 'x-y+1/3, x+2/3, -z+2/3'
14 'y+1/3, -x+y+2/3, -z+2/3'
15 '-x+1/3, -y+2/3, -z+2/3'
16 '-x+y+1/3, -x+2/3, z+2/3'
17 '-y+1/3, x-y+2/3, z+2/3'
18 'x+1/3, y+2/3, z+2/3'
loop_
_atom_type_symbol
_atom_type_oxidation_number
Mo2+ 2.67
Te2- -2
loop_
_atom_site_label
_atom_site_type_symbol
_atom_site_symmetry_multiplicity
_atom_site_Wyckoff_symbol
_atom_site_fract_x
_atom_site_fract_y
_atom_site_fract_z
_atom_site_B_iso_or_equiv
_atom_site_occupancy
_atom_site_attached_hydrogens
Mo1 Mo2+ 18 f -.14367(12) 0.01736(13) 0.09888(9) . 1. 0
Te1 Te2- 6 c 0 0 0.29112(13) . 1. 0
Te2 Te2- 18 f -.36957(10) 0.0020(1) 0.24699(7) . 1. 0
loop_
_atom_site_aniso_label
_atom_site_aniso_type_symbol
_atom_site_aniso_U_11
_atom_site_aniso_U_22
_atom_site_aniso_U_33
_atom_site_aniso_U_12
_atom_site_aniso_U_13
_atom_site_aniso_U_23
Mo1 Mo2+ 0.0168(7) 0.0178(7) 0.0127(7) 0.0088(5) 0.0000(4) 0.0000(4)
Te1 Te2- 0.0217(7) 0.0217(7) 0.0133(8) 0.0109(3) 0 0
Te2 Te2- 0.0196(6) 0.0183(6) 0.0163(6) 0.0095(4) 0.0017(3) -.0008(3)
#End of TTdata_59375-ICSD