
#(C) 2017 by FIZ Karlsruhe - Leibniz Institute for Information Infrastructure.  All rights reserved.
data_59456-ICSD
_database_code_ICSD 59456
_audit_creation_date 2005-04-01
_chemical_name_systematic 'Indium nickel yttrium  (1/2/2)'
_chemical_formula_structural 'In Ni2 Y2'
_chemical_formula_sum 'In1 Ni2 Y2'
_chemical_name_structure_type AlFe2B2
_exptl_crystal_density_diffrn 6.66
_publ_section_title

;
The crystal structure if R2 Ni2 In compounds (Re = Y, Sm, Gd, Tb, Ho, Er, TM,
Lu)
;
loop_
_citation_id
_citation_journal_full
_citation_year
_citation_journal_volume
_citation_page_first
_citation_page_last
_citation_journal_id_ASTM
primary 'Izvestiya Akademii Nauk SSSR, Neorganicheskie Materialy' 1988 24 409
411 IVNMAW
loop_
_publ_author_name
'Zaremba, V.I.'
'Bruskov, V.A.'
'Zavalii, P.Yu.'
'Kal'ichak, Ya.M.'
_cell_length_a 3.9000(8)
_cell_length_b 14.186(2)
_cell_length_c 3.6935(2)
_cell_angle_alpha 90.
_cell_angle_beta 90.
_cell_angle_gamma 90.
_cell_volume 204.34
_cell_formula_units_Z 2
_symmetry_space_group_name_H-M 'C m m m'
_symmetry_Int_Tables_number 65
_refine_ls_R_factor_all 0.077
loop_
_symmetry_equiv_pos_site_id
_symmetry_equiv_pos_as_xyz
1 'x, -y, z'
2 '-x, y, z'
3 'x, y, -z'
4 '-x, -y, -z'
5 '-x, y, -z'
6 'x, -y, -z'
7 '-x, -y, z'
8 'x, y, z'
9 'x+1/2, -y+1/2, z'
10 '-x+1/2, y+1/2, z'
11 'x+1/2, y+1/2, -z'
12 '-x+1/2, -y+1/2, -z'
13 '-x+1/2, y+1/2, -z'
14 'x+1/2, -y+1/2, -z'
15 '-x+1/2, -y+1/2, z'
16 'x+1/2, y+1/2, z'
loop_
_atom_type_symbol
_atom_type_oxidation_number
In0+ 0
Ni0+ 0
Y0+ 0
loop_
_atom_site_label
_atom_site_type_symbol
_atom_site_symmetry_multiplicity
_atom_site_Wyckoff_symbol
_atom_site_fract_x
_atom_site_fract_y
_atom_site_fract_z
_atom_site_B_iso_or_equiv
_atom_site_occupancy
_atom_site_attached_hydrogens
In1 In0+ 2 a 0 0 0 . 1 0
Ni2 Ni0+ 4 i 0 .19892 0 . 1 0
Y1 Y0+ 4 j 0 .36364 .5 . 1 0
#End of TTdata_59456-ICSD