
#(C) 2017 by FIZ Karlsruhe - Leibniz Institute for Information Infrastructure.  All rights reserved.
data_59498-ICSD
_database_code_ICSD 59498
_audit_creation_date 2005-04-01
_chemical_name_systematic 'Indium platinum (2/3)'
_chemical_formula_structural 'In2 Pt3'
_chemical_formula_sum 'In2 Pt3'
_chemical_name_structure_type Pt3Tl2
_exptl_crystal_density_diffrn 14.72
_publ_section_title
'Ueber die Mischungen Palladium-Thallium und Platin-Thallium'
loop_
_citation_id
_citation_journal_full
_citation_year
_citation_journal_volume
_citation_page_first
_citation_page_last
_citation_journal_id_ASTM
primary 'Journal of the Less-Common Metals' 1968 16 415 425 JCOMAH
loop_
_publ_author_name
'Bhan, S.'
'Goedecke, T.'
'Panday, P.K.'
'Schubert, K.'
_cell_length_a 5.575
_cell_length_b 5.575
_cell_length_c 13.657
_cell_angle_alpha 90.
_cell_angle_beta 90.
_cell_angle_gamma 120.
_cell_volume 367.6
_cell_formula_units_Z 4
_symmetry_space_group_name_H-M 'P -3 1 c'
_symmetry_Int_Tables_number 163
loop_
_symmetry_equiv_pos_site_id
_symmetry_equiv_pos_as_xyz
1 '-x+y, y, -z+1/2'
2 'x, x-y, -z+1/2'
3 '-y, -x, -z+1/2'
4 'x-y, x, -z'
5 'y, -x+y, -z'
6 '-x, -y, -z'
7 'x-y, -y, z+1/2'
8 '-x, -x+y, z+1/2'
9 'y, x, z+1/2'
10 '-x+y, -x, z'
11 '-y, x-y, z'
12 'x, y, z'
loop_
_atom_type_symbol
_atom_type_oxidation_number
In0+ 0
Pt0+ 0
loop_
_atom_site_label
_atom_site_type_symbol
_atom_site_symmetry_multiplicity
_atom_site_Wyckoff_symbol
_atom_site_fract_x
_atom_site_fract_y
_atom_site_fract_z
_atom_site_B_iso_or_equiv
_atom_site_occupancy
_atom_site_attached_hydrogens
In1 In0+ 2 a 0 0 .25 . 1 0
In2 In0+ 2 c .3333 .6667 .25 . 1 0
In3 In0+ 4 f .3333 .6667 .9087 . 1 0
Pt1 Pt0+ 12 i .1667 .3333 .0875 . 1 0
#End of TTdata_59498-ICSD