
#(C) 2017 by FIZ Karlsruhe - Leibniz Institute for Information Infrastructure, and the U.S. Secretary of
#Commerce on behalf of the United States.  All rights reserved.
data_600970-ICSD
_database_code_ICSD 600970
_audit_creation_date 2011-02-01
_chemical_name_systematic 'Hafnium vanadium gallide (3/2/6)'
_chemical_formula_structural 'Hf3 V2 Ga6'
_chemical_formula_sum 'Ga6 Hf3 V2'
_chemical_name_structure_type Hf3Mn2Ga6
_exptl_crystal_density_diffrn 9.56
_publ_section_title
'Crystal structure of the Hf3 Mn2 Ga6 compound and its analogs'
_publ_section_comment 'Cell and Type only determined'
loop_
_citation_id
_citation_journal_full
_citation_year
_citation_journal_volume
_citation_page_first
_citation_page_last
_citation_journal_id_ASTM
primary

;
Dopovidi Akademii Nauk Ukrains'koi RSR, Seriya B: Geologichni, Khimichni ta
Biologichni Nauki
; 1987 1987 44 48 DANND6
loop_
_publ_author_name
'Markiv, V.Ya.'
'Belyavina, N.N.'
_cell_length_a 8.787
_cell_length_b 5.387
_cell_length_c 7.744
_cell_angle_alpha 90.
_cell_angle_beta 90.
_cell_angle_gamma 90.
_cell_volume 366.57
_cell_formula_units_Z 2
_symmetry_space_group_name_H-M 'P m m n Z'
_symmetry_Int_Tables_number 59
loop_
_symmetry_equiv_pos_site_id
_symmetry_equiv_pos_as_xyz
1 'x+1/2, y+1/2, -z'
2 '-x, y+1/2, -z'
3 'x+1/2, -y, -z'
4 '-x, -y, -z'
5 '-x+1/2, -y+1/2, z'
6 'x, -y+1/2, z'
7 '-x+1/2, y, z'
8 'x, y, z'
loop_
_atom_type_symbol
_atom_type_oxidation_number
Hf0+ 0
V0+ 0
Ga0+ 0
loop_
_atom_site_label
_atom_site_type_symbol
_atom_site_symmetry_multiplicity
_atom_site_Wyckoff_symbol
_atom_site_fract_x
_atom_site_fract_y
_atom_site_fract_z
_atom_site_B_iso_or_equiv
_atom_site_occupancy
_atom_site_attached_hydrogens
Hf1 Hf0+ 4 f 0.532 0.25 0.152 . 1. 0
Hf2 Hf0+ 2 a 0.25 0.25 0.717 . 1. 0
V1 V0+ 4 d 0 0 0.5 . 1. 0
Ga1 Ga0+ 4 f 0.936 0.25 0.762 . 1. 0
Ga2 Ga0+ 2 a 0.25 0.25 0.361 . 1. 0
Ga3 Ga0+ 2 b 0.25 0.75 0.562 . 1. 0
Ga4 Ga0+ 4 e 0.25 0.017 0.045 . 1. 0
#End of TTdata_600970-ICSD