
#(C) 2017 by FIZ Karlsruhe - Leibniz Institute for Information Infrastructure.  All rights reserved.
data_60126-ICSD
_database_code_ICSD 60126
_audit_creation_date 1986-04-14
_chemical_name_systematic 'Tricalcium triarsenidogallate'
_chemical_formula_structural 'Ca3 Ga As3'
_chemical_formula_sum 'As3 Ca3 Ga1'
_chemical_name_structure_type Ca3InP3
_exptl_crystal_density_diffrn 4.02
_publ_section_title 'Neue Zintlphasen: Ba3 Ga Sb3, Ca3 Ga As3 und Ca3 In P3'
loop_
_citation_id
_citation_journal_full
_citation_year
_citation_journal_volume
_citation_page_first
_citation_page_last
_citation_journal_id_ASTM
primary

;
Zeitschrift fuer Naturforschung, Teil B. Anorganische Chemie, Organische
Chemie (33,1978-41,1986)
; 1985 40 1100 1104 ZNBAD2
loop_
_publ_author_name
'Cordier, G.'
'Schaefer, H.'
'Stelter, M.'
_cell_length_a 12.171(5)
_cell_length_b 4.197(2)
_cell_length_c 13.414(5)
_cell_angle_alpha 90.
_cell_angle_beta 90.
_cell_angle_gamma 90.
_cell_volume 685.21
_cell_formula_units_Z 4
_symmetry_space_group_name_H-M 'P n m a'
_symmetry_Int_Tables_number 62
_refine_ls_R_factor_all 0.074
loop_
_symmetry_equiv_pos_site_id
_symmetry_equiv_pos_as_xyz
1 'x+1/2, y, -z+1/2'
2 'x, -y+1/2, z'
3 '-x+1/2, y+1/2, z+1/2'
4 '-x, -y, -z'
5 '-x+1/2, -y, z+1/2'
6 '-x, y+1/2, -z'
7 'x+1/2, -y+1/2, -z+1/2'
8 'x, y, z'
loop_
_atom_type_symbol
_atom_type_oxidation_number
Ca2+ 2
Ga3+ 3
As3- -3
loop_
_atom_site_label
_atom_site_type_symbol
_atom_site_symmetry_multiplicity
_atom_site_Wyckoff_symbol
_atom_site_fract_x
_atom_site_fract_y
_atom_site_fract_z
_atom_site_B_iso_or_equiv
_atom_site_occupancy
_atom_site_attached_hydrogens
Ca1 Ca2+ 4 c 0.2721(2) 0.25 0.2844(2) . 1. 0
Ca2 Ca2+ 4 c 0.5623(3) 0.25 0.3920(2) . 1. 0
Ca3 Ca2+ 4 c 0.3510(3) 0.25 0.9978(2) . 1. 0
Ga1 Ga3+ 4 c 0.5628(1) 0.25 0.7978(1) . 1. 0
As1 As3- 4 c 0.6075(1) 0.25 0.6135(1) . 1. 0
As2 As3- 4 c 0.7499(1) 0.25 0.8774(1) . 1. 0
As3 As3- 4 c 0.0413(1) 0.25 0.3509(1) . 1. 0
loop_
_atom_site_aniso_label
_atom_site_aniso_type_symbol
_atom_site_aniso_U_11
_atom_site_aniso_U_22
_atom_site_aniso_U_33
_atom_site_aniso_U_12
_atom_site_aniso_U_13
_atom_site_aniso_U_23
Ca1 Ca2+ 0.0081(12) 0.0106(14) 0.0102(13) 0 0.0003(10) 0
Ca2 Ca2+ 0.0096(13) 0.0113(14) 0.0131(13) 0 0.0016(11) 0
Ca3 Ca2+ 0.0110(13) 0.0150(15) 0.0101(13) 0 -.0006(10) 0
Ga1 Ga3+ 0.0078(7) 0.0104(8) 0.0099(7) 0 -.0006(6) 0
As1 As3- 0.0081(6) 0.0130(8) 0.0063(6) 0 -.0004(5) 0
As2 As3- 0.0076(6) 0.0077(7) 0.0108(7) 0 -.0014(5) 0
As3 As3- 0.0084(7) 0.0089(7) 0.0121(7) 0 0.0001(5) 0
#End of TTdata_60126-ICSD