
#(C) 2017 by FIZ Karlsruhe - Leibniz Institute for Information Infrastructure, and the U.S. Secretary of
#Commerce on behalf of the United States.  All rights reserved.
data_601549-ICSD
_database_code_ICSD 601549
_audit_creation_date 2013-02-01
_chemical_name_systematic 'Rhodium titanium arsenide (1/1/1)'
_chemical_formula_structural 'Rh Ti As'
_chemical_formula_sum 'As1 Rh1 Ti1'
_chemical_name_structure_type TiNiSi-MgSrSi
_exptl_crystal_density_diffrn 8.33
_publ_section_title

;
Chimie minerale. Caracteristiques structurales de neuf nouveaux composes
ternaires M M' As (M = Ru, Rh, Pd; M'= element de transition 3d)
;
_publ_section_comment 'Cell and Type only determined'
loop_
_citation_id
_citation_journal_full
_citation_year
_citation_journal_volume
_citation_page_first
_citation_page_last
_citation_journal_id_ASTM
primary

;
Comptes Rendus Hebdomadaires des Seances de l'Academie des Sciences, Serie C,
Sciences Chimiques (1966-)
; 1974 278 237 239 CHDCAQ
loop_
_publ_author_name
'Deyris, B.'
'Roy-Montreuil, J.'
'Rouault, A.'
'Krumbuegel-Nyland, A.'
'Senateur, J.P.'
'Fruchart, R.'
'Michel, A.'
_cell_length_a 6.334
_cell_length_b 3.8165
_cell_length_c 7.388
_cell_angle_alpha 90.
_cell_angle_beta 90.
_cell_angle_gamma 90.
_cell_volume 178.6
_cell_formula_units_Z 4
_symmetry_space_group_name_H-M 'P n m a'
_symmetry_Int_Tables_number 62
loop_
_symmetry_equiv_pos_site_id
_symmetry_equiv_pos_as_xyz
1 'x+1/2, y, -z+1/2'
2 'x, -y+1/2, z'
3 '-x+1/2, y+1/2, z+1/2'
4 '-x, -y, -z'
5 '-x+1/2, -y, z+1/2'
6 '-x, y+1/2, -z'
7 'x+1/2, -y+1/2, -z+1/2'
8 'x, y, z'
loop_
_atom_type_symbol
_atom_type_oxidation_number
Rh0+ 0
Ti0+ 0
As0+ 0
loop_
_atom_site_label
_atom_site_type_symbol
_atom_site_symmetry_multiplicity
_atom_site_Wyckoff_symbol
_atom_site_fract_x
_atom_site_fract_y
_atom_site_fract_z
_atom_site_B_iso_or_equiv
_atom_site_occupancy
_atom_site_attached_hydrogens
Rh1 Rh0+ 4 c 0.64 0.25 0.057 . 1. 0
Ti1 Ti0+ 4 c 0.515 0.25 0.683 . 1. 0
As1 As0+ 4 c 0.276 0.25 0.11 . 1. 0
#End of TTdata_601549-ICSD