
#(C) 2017 by FIZ Karlsruhe - Leibniz Institute for Information Infrastructure, and the U.S. Secretary of
#Commerce on behalf of the United States.  All rights reserved.
data_601773-ICSD
_database_code_ICSD 601773
_audit_creation_date 2013-02-01
_chemical_name_systematic 'Yttrium platinum germanide (1/1/2)'
_chemical_formula_structural 'Y Pt Ge2'
_chemical_formula_sum 'Ge2 Pt1 Y1'
_chemical_name_structure_type YIrGe2
_exptl_crystal_density_diffrn 9.37
_publ_section_title

;
Une nouvell famille structurale de germaniures ternaires: R Ir Ge2 (R= Y,
Pr-Sm, Gd-Er) et M Pt Ge2 (M= Ca, Y, Ce-Sm, Gd-Tm)
;
_publ_section_comment 'Cell and Type only determined'
loop_
_citation_id
_citation_journal_full
_citation_year
_citation_journal_volume
_citation_page_first
_citation_page_last
_citation_journal_id_ASTM
primary 'Journal of the Less-Common Metals' 1987 128 249 257 JCOMAH
loop_
_publ_author_name
'Francois, M.'
'Venturini, G.'
'McRae, E.'
'Malaman, B.'
'Roques, B.'
_cell_length_a 4.307(5)
_cell_length_b 16.29(1)
_cell_length_c 8.669(5)
_cell_angle_alpha 90.
_cell_angle_beta 90.
_cell_angle_gamma 90.
_cell_volume 608.23
_cell_formula_units_Z 8
_symmetry_space_group_name_H-M 'I m m m'
_symmetry_Int_Tables_number 71
loop_
_symmetry_equiv_pos_site_id
_symmetry_equiv_pos_as_xyz
1 'x, y, -z'
2 'x, -y, z'
3 '-x, y, z'
4 '-x, -y, -z'
5 '-x, -y, z'
6 '-x, y, -z'
7 'x, -y, -z'
8 'x, y, z'
9 'x+1/2, y+1/2, -z+1/2'
10 'x+1/2, -y+1/2, z+1/2'
11 '-x+1/2, y+1/2, z+1/2'
12 '-x+1/2, -y+1/2, -z+1/2'
13 '-x+1/2, -y+1/2, z+1/2'
14 '-x+1/2, y+1/2, -z+1/2'
15 'x+1/2, -y+1/2, -z+1/2'
16 'x+1/2, y+1/2, z+1/2'
loop_
_atom_type_symbol
_atom_type_oxidation_number
Pt0+ 0
Y0+ 0
Ge0+ 0
loop_
_atom_site_label
_atom_site_type_symbol
_atom_site_symmetry_multiplicity
_atom_site_Wyckoff_symbol
_atom_site_fract_x
_atom_site_fract_y
_atom_site_fract_z
_atom_site_B_iso_or_equiv
_atom_site_occupancy
_atom_site_attached_hydrogens
Pt1 Pt0+ 8 l 0.5 0.146 0.249 . 1. 0
Y1 Y0+ 4 i 0 0 0.261 . 1. 0
Y2 Y0+ 4 h 0 0.206 0.5 . 1. 0
Ge1 Ge0+ 4 h 0.5 0.079 0 . 1. 0
Ge2 Ge0+ 4 g 0.5 0.077 0.5 . 1. 0
Ge3 Ge0+ 8 l 0.5 0.3 0.347 . 1. 0
#End of TTdata_601773-ICSD