
#(C) 2017 by FIZ Karlsruhe - Leibniz Institute for Information Infrastructure, and the U.S. Secretary of
#Commerce on behalf of the United States.  All rights reserved.
data_602324-ICSD
_database_code_ICSD 602324
_audit_creation_date 2011-02-01
_chemical_name_systematic 'Cesium titanium(III) selenide (1/5/8)'
_chemical_formula_structural 'Cs Ti5 Se8'
_chemical_formula_sum 'Cs1 Se8 Ti5'
_chemical_name_structure_type Cr5CsS8
_exptl_crystal_density_diffrn 5.49
_publ_section_title

;
Synthesis of new ternary tunnel chalcogenides by ion exchange reactions and
deintercalation of the ternary chromium se
;
_publ_section_comment 'Cell and Type only determined'
loop_
_citation_id
_citation_journal_full
_citation_year
_citation_journal_volume
_citation_page_first
_citation_page_last
_citation_journal_id_ASTM
primary 'Materials Research Bulletin' 1993 28 501 508 MRBUAC
loop_
_publ_author_name
'Ohtani, T.'
'Sano, Y.'
'Kodama, K.'
'Onoue, S.'
'Nishihara, H.'
_cell_length_a 18.870(2)
_cell_length_b 3.6021(76)
_cell_length_c 9.2176(4)
_cell_angle_alpha 90.
_cell_angle_beta 104.1
_cell_angle_gamma 90.
_cell_volume 607.66
_cell_formula_units_Z 2
_symmetry_space_group_name_H-M 'C 1 2/m 1'
_symmetry_Int_Tables_number 12
loop_
_symmetry_equiv_pos_site_id
_symmetry_equiv_pos_as_xyz
1 '-x, y, -z'
2 '-x, -y, -z'
3 'x, -y, z'
4 'x, y, z'
5 '-x+1/2, y+1/2, -z'
6 '-x+1/2, -y+1/2, -z'
7 'x+1/2, -y+1/2, z'
8 'x+1/2, y+1/2, z'
loop_
_atom_type_symbol
_atom_type_oxidation_number
Cs1+ 1
Ti3+ 3
Se2- -2
loop_
_atom_site_label
_atom_site_type_symbol
_atom_site_symmetry_multiplicity
_atom_site_Wyckoff_symbol
_atom_site_fract_x
_atom_site_fract_y
_atom_site_fract_z
_atom_site_B_iso_or_equiv
_atom_site_occupancy
_atom_site_attached_hydrogens
Cs1 Cs1+ 2 d 0 0.5 0.5 . 1. 0
Ti1 Ti3+ 2 a 0 0 0 . 1. 0
Ti2 Ti3+ 4 i 0.341 0 0.012 . 1. 0
Ti3 Ti3+ 4 i 0.295 0 0.666 . 1. 0
Se1 Se2- 4 i 0.574 0 0.158 . 1. 0
Se2 Se2- 4 i 0.089 0 0.833 . 1. 0
Se3 Se2- 4 i 0.171 0 0.49 . 1. 0
Se4 Se2- 4 i 0.241 0 0.16 . 1. 0
#End of TTdata_602324-ICSD