
#(C) 2017 by FIZ Karlsruhe - Leibniz Institute for Information Infrastructure, and the U.S. Secretary of
#Commerce on behalf of the United States.  All rights reserved.
data_602326-ICSD
_database_code_ICSD 602326
_audit_creation_date 2011-02-01
_chemical_name_systematic 'Rubidium vanadium(III) selenide (1/5/8)'
_chemical_formula_structural 'Rb V5 Se8'
_chemical_formula_sum 'Rb1 Se8 V5'
_chemical_name_structure_type Cr5CsS8
_exptl_crystal_density_diffrn 5.66
_publ_section_title

;
Synthesis of new ternary tunnel chalcogenides by ion exchange reactions and
deintercalation of the ternary chromium se
;
_publ_section_comment 'Cell and Type only determined'
loop_
_citation_id
_citation_journal_full
_citation_year
_citation_journal_volume
_citation_page_first
_citation_page_last
_citation_journal_id_ASTM
primary 'Materials Research Bulletin' 1993 28 501 508 MRBUAC
loop_
_publ_author_name
'Ohtani, T.'
'Sano, Y.'
'Kodama, K.'
'Onoue, S.'
'Nishihara, H.'
_cell_length_a 18.337(3)
_cell_length_b 3.5801(16)
_cell_length_c 8.9344(4)
_cell_angle_alpha 90.
_cell_angle_beta 103.7
_cell_angle_gamma 90.
_cell_volume 569.84
_cell_formula_units_Z 2
_symmetry_space_group_name_H-M 'C 1 2/m 1'
_symmetry_Int_Tables_number 12
loop_
_symmetry_equiv_pos_site_id
_symmetry_equiv_pos_as_xyz
1 '-x, y, -z'
2 '-x, -y, -z'
3 'x, -y, z'
4 'x, y, z'
5 '-x+1/2, y+1/2, -z'
6 '-x+1/2, -y+1/2, -z'
7 'x+1/2, -y+1/2, z'
8 'x+1/2, y+1/2, z'
loop_
_atom_type_symbol
_atom_type_oxidation_number
Rb1+ 1
V3+ 3
Se2- -2
loop_
_atom_site_label
_atom_site_type_symbol
_atom_site_symmetry_multiplicity
_atom_site_Wyckoff_symbol
_atom_site_fract_x
_atom_site_fract_y
_atom_site_fract_z
_atom_site_B_iso_or_equiv
_atom_site_occupancy
_atom_site_attached_hydrogens
Rb1 Rb1+ 2 d 0 0.5 0.5 . 1. 0
V1 V3+ 2 a 0 0 0 . 1. 0
V2 V3+ 4 i 0.342 0 0.016 . 1. 0
V3 V3+ 4 i 0.295 0 0.665 . 1. 0
Se1 Se2- 4 i 0.574 0 0.16 . 1. 0
Se2 Se2- 4 i 0.087 0 0.826 . 1. 0
Se3 Se2- 4 i 0.169 0 0.491 . 1. 0
Se4 Se2- 4 i 0.24 0 0.158 . 1. 0
#End of TTdata_602326-ICSD