
data_60327-ICSD
_database_code_ICSD 60327
_audit_creation_date 1986-12-03
_audit_update_record 2003-10-01
_chemical_name_systematic 'Lead iodide'
_chemical_formula_structural 'Pb I2'
_chemical_formula_sum 'I2 Pb1'
_chemical_name_structure_type TaSe2(P63mc)
_exptl_crystal_density_diffrn 6.1
_cell_length_a 4.557
_cell_length_b 4.557
_cell_length_c 27.91599
_cell_angle_alpha 90.
_cell_angle_beta 90.
_cell_angle_gamma 120.
_cell_volume 502.04
_cell_formula_units_Z 4
_symmetry_space_group_name_H-M 'P 63 m c'
_symmetry_Int_Tables_number 186
loop_
_symmetry_equiv_pos_site_id
_symmetry_equiv_pos_as_xyz
1 '-x, -x+y, z+1/2'
2 'x-y, -y, z+1/2'
3 'y, x, z+1/2'
4 'x-y, x, z+1/2'
5 'y, -x+y, z+1/2'
6 '-x, -y, z+1/2'
7 'x, x-y, z'
8 '-x+y, y, z'
9 '-y, -x, z'
10 '-x+y, -x, z'
11 '-y, x-y, z'
12 'x, y, z'
loop_
_atom_type_symbol
_atom_type_oxidation_number
Pb2+ 2
I1- -1
Pb2+ 2
I1- -1
loop_
_atom_site_label
_atom_site_type_symbol
_atom_site_symmetry_multiplicity
_atom_site_Wyckoff_symbol
_atom_site_fract_x
_atom_site_fract_y
_atom_site_fract_z
_atom_site_B_iso_or_equiv
_atom_site_occupancy
_atom_site_attached_hydrogens
Pb1 Pb2+ 2 b 0.3333 0.6667 0 . 1. 0
I1 I1- 2 b 0.6667 0.3333 0.9375 . 1. 0
I2 I1- 2 a 0 0 0.0625 . 1. 0
Pb2 Pb2+ 2 b 0.6667 0.3333 0.25 . 1. 0
I3 I1- 2 b 0.3333 0.6667 0.1875 . 1. 0
I4 I1- 2 a 0 0 0.3125 . 1. 0
