
#(C) 2017 by FIZ Karlsruhe - Leibniz Institute for Information Infrastructure, and the U.S. Secretary of
#Commerce on behalf of the United States.  All rights reserved.
data_604582-ICSD
_database_code_ICSD 604582
_audit_creation_date 2012-02-01
_chemical_name_systematic 'Yttrium copper stannide (3/4/4)'
_chemical_formula_structural 'Y3 Cu4 Sn4'
_chemical_formula_sum 'Cu4 Sn4 Y3'
_chemical_name_structure_type Cu4Zr3Si4
_exptl_crystal_density_diffrn 7.4
_publ_section_title

;
Structure cristallines de Sc3 Cu4 Ge4, TR3 Cu4 Sn4 (TR = Y, Gd, Tb, Dy, Ho,
Er), isotypes de Gd3 Cu4 Ge4, et la phase
;
_publ_section_comment 'Cell and Type only determined'
loop_
_citation_id
_citation_journal_full
_citation_year
_citation_journal_volume
_citation_page_first
_citation_page_last
_citation_journal_id_ASTM
primary 'Materials Research Bulletin' 1983 18 1537 1542 MRBUAC
loop_
_publ_author_name
'Thirion, F.'
'Steinmetz, J.'
'Malaman, B.'
_cell_length_a 14.62(1)
_cell_length_b 6.910(5)
_cell_length_c 4.424(3)
_cell_angle_alpha 90.
_cell_angle_beta 90.
_cell_angle_gamma 90.
_cell_volume 446.93
_cell_formula_units_Z 2
_symmetry_space_group_name_H-M 'I m m m'
_symmetry_Int_Tables_number 71
loop_
_symmetry_equiv_pos_site_id
_symmetry_equiv_pos_as_xyz
1 'x, y, -z'
2 'x, -y, z'
3 '-x, y, z'
4 '-x, -y, -z'
5 '-x, -y, z'
6 '-x, y, -z'
7 'x, -y, -z'
8 'x, y, z'
9 'x+1/2, y+1/2, -z+1/2'
10 'x+1/2, -y+1/2, z+1/2'
11 '-x+1/2, y+1/2, z+1/2'
12 '-x+1/2, -y+1/2, -z+1/2'
13 '-x+1/2, -y+1/2, z+1/2'
14 '-x+1/2, y+1/2, -z+1/2'
15 'x+1/2, -y+1/2, -z+1/2'
16 'x+1/2, y+1/2, z+1/2'
loop_
_atom_type_symbol
_atom_type_oxidation_number
Y0+ 0
Cu0+ 0
Sn0+ 0
loop_
_atom_site_label
_atom_site_type_symbol
_atom_site_symmetry_multiplicity
_atom_site_Wyckoff_symbol
_atom_site_fract_x
_atom_site_fract_y
_atom_site_fract_z
_atom_site_B_iso_or_equiv
_atom_site_occupancy
_atom_site_attached_hydrogens
Y1 Y0+ 2 d 0 0.5 0 . 1. 0
Y2 Y0+ 4 e 0.129 0 0 . 1. 0
Cu1 Cu0+ 8 n 0.327 0.186 0 . 1. 0
Sn1 Sn0+ 4 f 0.215 0.5 0 . 1. 0
Sn2 Sn0+ 4 h 0 0.201 0.5 . 1. 0
#End of TTdata_604582-ICSD