
data_604740-ICSD
_database_code_ICSD 604740
_audit_creation_date 2012-02-01
_chemical_name_systematic 'Silver arsenic sulfide (1/1/1)'
_chemical_formula_structural 'Ag As S'
_chemical_formula_sum 'Ag1 As1 S1'
_chemical_name_structure_type CuAsS
_exptl_crystal_density_diffrn 6.29
_cell_length_a 11.517
_cell_length_b 5.506
_cell_length_c 3.578
_cell_angle_alpha 90.
_cell_angle_beta 90.
_cell_angle_gamma 90.
_cell_volume 226.89
_cell_formula_units_Z 4
_symmetry_space_group_name_H-M 'P n a 21'
_symmetry_Int_Tables_number 33
loop_
_symmetry_equiv_pos_site_id
_symmetry_equiv_pos_as_xyz
1 'x+1/2, -y+1/2, z'
2 '-x+1/2, y+1/2, z+1/2'
3 '-x, -y, z+1/2'
4 'x, y, z'
loop_
_atom_type_symbol
_atom_type_oxidation_number
Ag2+ 2
As1- -1
S1- -1
loop_
_atom_site_label
_atom_site_type_symbol
_atom_site_symmetry_multiplicity
_atom_site_Wyckoff_symbol
_atom_site_fract_x
_atom_site_fract_y
_atom_site_fract_z
_atom_site_B_iso_or_equiv
_atom_site_occupancy
_atom_site_attached_hydrogens
Ag1 Ag2+ 4 a 0.326 0.439 0.257 . 1. 0
As1 As1- 4 a 0.487 0.148 0.246 . 1. 0
S1 S1- 4 a 0.165 0.179 0.24 . 1. 0
