
data_605879-ICSD
_database_code_ICSD 605879
_audit_creation_date 2012-02-01
_chemical_name_systematic 'Strontium silver (7/3)'
_chemical_formula_structural 'Sr7 Ag3'
_chemical_formula_sum 'Ag3 Sr7'
_chemical_name_structure_type Fe3Th7
_exptl_crystal_density_diffrn 3.81
_cell_length_a 11.38(1)
_cell_length_b 11.38(1)
_cell_length_c 7.277(5)
_cell_angle_alpha 90.
_cell_angle_beta 90.
_cell_angle_gamma 120.
_cell_volume 816.15
_cell_formula_units_Z 2
_symmetry_space_group_name_H-M 'P 63 m c'
_symmetry_Int_Tables_number 186
loop_
_symmetry_equiv_pos_site_id
_symmetry_equiv_pos_as_xyz
1 '-x, -x+y, z+1/2'
2 'x-y, -y, z+1/2'
3 'y, x, z+1/2'
4 'x-y, x, z+1/2'
5 'y, -x+y, z+1/2'
6 '-x, -y, z+1/2'
7 'x, x-y, z'
8 '-x+y, y, z'
9 '-y, -x, z'
10 '-x+y, -x, z'
11 '-y, x-y, z'
12 'x, y, z'
loop_
_atom_type_symbol
_atom_type_oxidation_number
Ag0+ 0
Sr0+ 0
loop_
_atom_site_label
_atom_site_type_symbol
_atom_site_symmetry_multiplicity
_atom_site_Wyckoff_symbol
_atom_site_fract_x
_atom_site_fract_y
_atom_site_fract_z
_atom_site_B_iso_or_equiv
_atom_site_occupancy
_atom_site_attached_hydrogens
Ag1 Ag0+ 6 c .812 .188 .331 . 1. 0
Sr1 Sr0+ 2 b .3333 .6667 .045 . 1. 0
Sr2 Sr0+ 6 c .125 .875 .25 . 1. 0
Sr3 Sr0+ 6 c .543 .457 .066 . 1. 0
