
#(C) 2017 by FIZ Karlsruhe - Leibniz Institute for Information Infrastructure.  All rights reserved.
data_60653-ICSD
_database_code_ICSD 60653
_audit_creation_date 1987-03-16
_audit_update_record 1987-03-17
_chemical_name_systematic 'Dicopper oxide selenate(IV) - monoclinic'
_chemical_formula_structural 'Cu2 O (Se O3)'
_chemical_formula_sum 'Cu2 O4 Se1'
_exptl_crystal_density_diffrn 5.12
_publ_section_title

;
Die Kristallstrukturen der Kupfer(II)-oxo-selenite Cu2O(SeO3) (kubisch und
monoklin) und Cu4O(SeO3)3 (monoklin und triklin)
;
loop_
_citation_id
_citation_journal_full
_citation_year
_citation_journal_volume
_citation_page_first
_citation_page_last
_citation_journal_id_ASTM
primary 'Monatshefte fuer Chemie' 1986 117 887 896 MOCMB7
loop_
_publ_author_name
'Effenberger, H.'
'Pertlik, F.'
_cell_length_a 6.987(5)
_cell_length_b 5.953(4)
_cell_length_c 8.429(6)
_cell_angle_alpha 90.
_cell_angle_beta 92.17(3)
_cell_angle_gamma 90.
_cell_volume 350.34
_cell_formula_units_Z 4
_symmetry_space_group_name_H-M 'P 1 21/n 1'
_symmetry_Int_Tables_number 14
_refine_ls_R_factor_all 0.041
loop_
_symmetry_equiv_pos_site_id
_symmetry_equiv_pos_as_xyz
1 '-x+1/2, y+1/2, -z+1/2'
2 '-x, -y, -z'
3 'x+1/2, -y+1/2, z+1/2'
4 'x, y, z'
loop_
_atom_type_symbol
_atom_type_oxidation_number
Cu2+ 2
O2- -2
Se4+ 4
O2- -2
loop_
_atom_site_label
_atom_site_type_symbol
_atom_site_symmetry_multiplicity
_atom_site_Wyckoff_symbol
_atom_site_fract_x
_atom_site_fract_y
_atom_site_fract_z
_atom_site_B_iso_or_equiv
_atom_site_occupancy
_atom_site_attached_hydrogens
Cu1 Cu2+ 2 a 0 0 0 . 1. 0
Cu2 Cu2+ 2 d 0.5 0 0 . 1. 0
Cu3 Cu2+ 4 e 0.7477(1) 0.2950(1) 0.2395(1) . 1. 0
O1 O2- 4 e 0.7530(5) 0.0310(6) 0.0981(4) . 1. 0
Se1 Se4+ 4 e 0.2648(1) 0.4227(1) 0.0999(1) . 1. 0
O2 O2- 4 e 0.3085(1) 0.4359(6) -.0995(4) . 1. 0
O3 O2- 4 e 0.0530(5) 0.2830(6) 0.1040(5) . 1. 0
O4 O2- 4 e 0.4205(5) 0.2174(6) 0.1595(5) . 1. 0
loop_
_atom_site_aniso_label
_atom_site_aniso_type_symbol
_atom_site_aniso_U_11
_atom_site_aniso_U_22
_atom_site_aniso_U_33
_atom_site_aniso_U_12
_atom_site_aniso_U_13
_atom_site_aniso_U_23
Cu1 Cu2+ 0.0052(3) 0.0038(3) 0.0103(3) -.0003(2) 0.0019(3) -.0010(2)
Cu2 Cu2+ 0.0052(3) 0.0050(3) 0.0091(3) -.0004(2) -.0011(3) -.0007(2)
Cu3 Cu2+ 0.0096(3) 0.0015(2) 0.0075(2) 0.0005(2) -.0002(2) -.0003(2)
O1 O2- 0.006(1) 0.004(1) 0.010(1) 0.002(1) 0.001(1) 0.000(1)
Se1 Se4+ 0.0064(2) 0.0032(2) 0.0086(2) -.0008(1) 0.0009(2) -.0016(1)
O2 O2- 0.009(2) 0.006(1) 0.009(1) -.001(1) -.001(1) 0.001(1)
O3 O2- 0.005(1) 0.006(1) 0.023(2) -.003(1) 0.005(1) -.005(1)
O4 O2- 0.009(2) 0.008(1) 0.011(1) 0.002(1) -.002(1) 0.000(1)
#End of TTdata_60653-ICSD