
#(C) 2017 by FIZ Karlsruhe - Leibniz Institute for Information Infrastructure, and the U.S. Secretary of
#Commerce on behalf of the United States.  All rights reserved.
data_607497-ICSD
_database_code_ICSD 607497
_audit_creation_date 2012-02-01
_audit_update_record 2017-08-01
_chemical_name_systematic 'Iron aluminide (1/6)'
_chemical_formula_structural 'Fe Al6'
_chemical_formula_sum 'Al6 Fe1'
_chemical_name_structure_type Al6Mn
_exptl_crystal_density_diffrn 3.41
_publ_section_title
'Structure of some aluminium-irion-magnesium-manganese-silicon alloys'
_publ_section_comment 'Cell and Type only determined'
loop_
_citation_id
_citation_journal_full
_citation_year
_citation_journal_volume
_citation_page_first
_citation_page_last
_citation_journal_id_ASTM
primary 'Zeitschrift fuer Metallkunde' 1975 66 605 611 ZEMTAE
loop_
_publ_author_name
'Barlock, John G.'
'Mondolfo, Lucio F.'
_cell_length_a 7.437
_cell_length_b 6.492
_cell_length_c 8.788
_cell_angle_alpha 90.
_cell_angle_beta 90.
_cell_angle_gamma 90.
_cell_volume 424.29
_cell_formula_units_Z 4
_symmetry_space_group_name_H-M 'C m c m'
_symmetry_Int_Tables_number 63
loop_
_symmetry_equiv_pos_site_id
_symmetry_equiv_pos_as_xyz
1 '-x, y, -z+1/2'
2 '-x, -y, z+1/2'
3 '-x, y, z'
4 '-x, -y, -z'
5 'x, -y, z+1/2'
6 'x, y, -z+1/2'
7 'x, -y, -z'
8 'x, y, z'
9 '-x+1/2, y+1/2, -z+1/2'
10 '-x+1/2, -y+1/2, z+1/2'
11 '-x+1/2, y+1/2, z'
12 '-x+1/2, -y+1/2, -z'
13 'x+1/2, -y+1/2, z+1/2'
14 'x+1/2, y+1/2, -z+1/2'
15 'x+1/2, -y+1/2, -z'
16 'x+1/2, y+1/2, z'
loop_
_atom_type_symbol
_atom_type_oxidation_number
Al0+ 0
Fe0+ 0
loop_
_atom_site_label
_atom_site_type_symbol
_atom_site_symmetry_multiplicity
_atom_site_Wyckoff_symbol
_atom_site_fract_x
_atom_site_fract_y
_atom_site_fract_z
_atom_site_B_iso_or_equiv
_atom_site_occupancy
_atom_site_attached_hydrogens
Al1 Al0+ 8 e 0.326 0 0 . 1. 0
Al2 Al0+ 8 f 0 0.139 0.1 . 1. 0
Al3 Al0+ 8 g 0.318 0.286 0.25 . 1. 0
Fe1 Fe0+ 4 c 0 0.457 0.25 . 1. 0
#End of TTdata_607497-ICSD