
data_60826-ICSD
_database_code_ICSD 60826
_audit_creation_date 1988-02-22
_audit_update_record 2013-02-01
_chemical_name_systematic 'Calcium platinum phosphide'
_chemical_formula_structural 'Ca Pt P'
_chemical_formula_sum 'Ca1 P1 Pt1'
_exptl_crystal_density_diffrn 7.51
_cell_length_a 4.344(1)
_cell_length_b 8.311(1)
_cell_length_c 6.519(1)
_cell_angle_alpha 90.
_cell_angle_beta 90.
_cell_angle_gamma 90.
_cell_volume 235.36
_cell_formula_units_Z 4
_symmetry_space_group_name_H-M 'P m c 21'
_symmetry_Int_Tables_number 26
_refine_ls_R_factor_all 0.035
loop_
_symmetry_equiv_pos_site_id
_symmetry_equiv_pos_as_xyz
1 'x, -y, z+1/2'
2 '-x, -y, z+1/2'
3 '-x, y, z'
4 'x, y, z'
loop_
_atom_type_symbol
_atom_type_oxidation_number
Ca0+ 0
Pt0+ 0
P0+ 0
loop_
_atom_site_label
_atom_site_type_symbol
_atom_site_symmetry_multiplicity
_atom_site_Wyckoff_symbol
_atom_site_fract_x
_atom_site_fract_y
_atom_site_fract_z
_atom_site_B_iso_or_equiv
_atom_site_occupancy
_atom_site_attached_hydrogens
Ca1 Ca0+ 2 a 0 0.5860(7) 0.5719(9) . 1. 0
Ca2 Ca0+ 2 a 0 0.8722(7) 0.1362(9) . 1. 0
Pt1 Pt0+ 2 b 0.5 0.1698(2) 0 . 1. 0
Pt2 Pt0+ 2 b 0.5 0.3420(2) 0.3778(2) . 1. 0
P1 P0+ 2 b 0.5 0.3836(8) 0.7562(12) . 1. 0
P2 P0+ 2 b 0.5 0.0733(9) 0.3321(10) . 1. 0
loop_
_atom_site_aniso_label
_atom_site_aniso_type_symbol
_atom_site_aniso_U_11
_atom_site_aniso_U_22
_atom_site_aniso_U_33
_atom_site_aniso_U_12
_atom_site_aniso_U_13
_atom_site_aniso_U_23
Ca1 Ca0+ 0.0158(31) 0.0222(28) 0.0090(22) 0 0 -.0004(21)
Ca2 Ca0+ 0.0197(32) 0.0171(28) 0.0114(24) 0 0 0.0024(19)
Pt1 Pt0+ 0.0232(13) 0.0068(6) 0.0099(9) 0 0 -.0001(5)
Pt2 Pt0+ 0.0114(9) 0.0072(5) 0.0083(8) 0 0 -.0005(5)
P1 P0+ 0.0176(42) 0.0096(29) 0.0133(33) 0 0 0.0007(25)
P2 P0+ 0.0256(48) 0.0084(30) 0.008(3) 0 0 -.0004(21)
