
#(C) 2017 by FIZ Karlsruhe - Leibniz Institute for Information Infrastructure.  All rights reserved.
data_60855-ICSD
_database_code_ICSD 60855
_audit_creation_date 1988-02-22
_audit_update_record 2012-02-01
_chemical_name_systematic 'Scandium chloride carbide (5/8/1)'
_chemical_formula_structural 'Sc5 Cl8 C'
_chemical_formula_sum 'C1 Cl8 Sc5'
_chemical_name_structure_type Sc5Cl8C
_exptl_crystal_density_diffrn 2.99
_publ_section_title

;
Synthesis, structure and properties of the infinite-chain compounds Sc5 Cl8 C
and Sc5 Cl8 N
;
loop_
_citation_id
_citation_journal_full
_citation_year
_citation_journal_volume
_citation_page_first
_citation_page_last
_citation_journal_id_ASTM
primary 'Inorganic Chemistry' 1987 26 469 473 INOCAJ
loop_
_publ_author_name
'Hwu, S.-J.'
'Dudis, D.S.'
'Corbett, J.D.'
_cell_length_a 17.80(1)
_cell_length_b 3.5259(7)
_cell_length_c 12.052(7)
_cell_angle_alpha 90.
_cell_angle_beta 130.11(4)
_cell_angle_gamma 90.
_cell_volume 578.5
_cell_formula_units_Z 2
_symmetry_space_group_name_H-M 'C 1 2/m 1'
_symmetry_Int_Tables_number 12
_refine_ls_R_factor_all 0.021
loop_
_symmetry_equiv_pos_site_id
_symmetry_equiv_pos_as_xyz
1 '-x, y, -z'
2 '-x, -y, -z'
3 'x, -y, z'
4 'x, y, z'
5 '-x+1/2, y+1/2, -z'
6 '-x+1/2, -y+1/2, -z'
7 'x+1/2, -y+1/2, z'
8 'x+1/2, y+1/2, z'
loop_
_atom_type_symbol
_atom_type_oxidation_number
Sc3+ 3
Sc2+ 2
Cl1- -1
C3- -3
loop_
_atom_site_label
_atom_site_type_symbol
_atom_site_symmetry_multiplicity
_atom_site_Wyckoff_symbol
_atom_site_fract_x
_atom_site_fract_y
_atom_site_fract_z
_atom_site_B_iso_or_equiv
_atom_site_occupancy
_atom_site_attached_hydrogens
Sc1 Sc3+ 2 a 0 0 0 . 1. 0
Sc2 Sc2+ 4 i 0.48775(6) 0 0.61374(8) . 1. 0
Sc3 Sc2+ 4 i 0.33662(6) 0.5 0.32417(9) . 1. 0
Cl1 Cl1- 4 i 0.29806(8) 0 0.4329(1) . 1. 0
Cl2 Cl1- 4 i 0.13299(8) 0.5 0.1036(1) . 1. 0
Cl3 Cl1- 4 i 0.32778(8) 0 0.1639(1) . 1. 0
Cl4 Cl1- 4 i 0.52979(8) 0.5 0.2374(1) . 1. 0
C1 C3- 2 c 0.5 0.5 0.5 . 1. 0
#End of TTdata_60855-ICSD