
#(C) 2017 by FIZ Karlsruhe - Leibniz Institute for Information Infrastructure, and the U.S. Secretary of
#Commerce on behalf of the United States.  All rights reserved.
data_608951-ICSD
_database_code_ICSD 608951
_audit_creation_date 2012-02-01
_chemical_name_systematic 'Yttrium nickel aluminide (1/1/4)'
_chemical_formula_structural 'Y Ni Al4'
_chemical_formula_sum 'Al4 Ni1 Y1'
_chemical_name_structure_type Al4NiY
_exptl_crystal_density_diffrn 4.07
_publ_section_title

;
Isothermal section at 800 degree C of the Y-Ni-Al ternary system in the range
of 0-33.3 at.% of yttrium
;
_publ_section_comment 'Cell and Type only determined'
loop_
_citation_id
_citation_journal_full
_citation_year
_citation_journal_volume
_citation_page_first
_citation_page_last
_citation_journal_id_ASTM
primary

;
Dopovidi Akademii Nauk Ukrains'koi RSR, Seriya A: Fiziko-Matematichni Ta
Tekhnichni Nauki
; 1977 39 375 377 DNUNDU
loop_
_publ_author_name
'Rykhal', R.M.'
'Zarechnyuk, O.S.'
_cell_length_a 4.08
_cell_length_b 15.44
_cell_length_c 6.62
_cell_angle_alpha 90.
_cell_angle_beta 90.
_cell_angle_gamma 90.
_cell_volume 417.03
_cell_formula_units_Z 4
_symmetry_space_group_name_H-M 'C m c m'
_symmetry_Int_Tables_number 63
loop_
_symmetry_equiv_pos_site_id
_symmetry_equiv_pos_as_xyz
1 '-x, y, -z+1/2'
2 '-x, -y, z+1/2'
3 '-x, y, z'
4 '-x, -y, -z'
5 'x, -y, z+1/2'
6 'x, y, -z+1/2'
7 'x, -y, -z'
8 'x, y, z'
9 '-x+1/2, y+1/2, -z+1/2'
10 '-x+1/2, -y+1/2, z+1/2'
11 '-x+1/2, y+1/2, z'
12 '-x+1/2, -y+1/2, -z'
13 'x+1/2, -y+1/2, z+1/2'
14 'x+1/2, y+1/2, -z+1/2'
15 'x+1/2, -y+1/2, -z'
16 'x+1/2, y+1/2, z'
loop_
_atom_type_symbol
_atom_type_oxidation_number
Al0+ 0
Ni0+ 0
Y0+ 0
loop_
_atom_site_label
_atom_site_type_symbol
_atom_site_symmetry_multiplicity
_atom_site_Wyckoff_symbol
_atom_site_fract_x
_atom_site_fract_y
_atom_site_fract_z
_atom_site_B_iso_or_equiv
_atom_site_occupancy
_atom_site_attached_hydrogens
Al1 Al0+ 4 b 0 0.5 0 . 1. 0
Al2 Al0+ 4 c 0 0.943 0.25 . 1. 0
Al3 Al0+ 8 f 0 0.304 0.054 . 1. 0
Ni1 Ni0+ 4 c 0 0.771 0.25 . 1. 0
Y1 Y0+ 4 c 0 0.121 0.25 . 1. 0
#End of TTdata_608951-ICSD