
#(C) 2017 by FIZ Karlsruhe - Leibniz Institute for Information Infrastructure.  All rights reserved.
data_60918-ICSD
_database_code_ICSD 60918
_audit_creation_date 1988-02-22
_audit_update_record 2005-10-01
_chemical_name_systematic 'Carbon hexazirconium dodecaiodide'
_chemical_formula_structural 'Zr6 I12 C'
_chemical_formula_sum 'C1 I12 Zr6'
_chemical_name_structure_type Sc7Cl12
_exptl_crystal_density_diffrn 5.69
_publ_section_title

;
Stabilization of clusters by interstitial atoms.Three carbon centered
zirconium iodide clusters, Zr6I12C, Zr6I14C And Mzr6I14C (M=K,Rb Or Cs)
;
loop_
_citation_id
_citation_journal_full
_citation_year
_citation_journal_volume
_citation_page_first
_citation_page_last
_citation_journal_id_ASTM
primary 'Journal of the American Chemical Society' 1985 107 5704 5711 JACSAT
loop_
_publ_author_name
'Smith, J.D.'
'Corbett, J.D.'
_cell_length_a 14.508(1)
_cell_length_b 14.508(1)
_cell_length_c 10.007(1)
_cell_angle_alpha 90.
_cell_angle_beta 90.
_cell_angle_gamma 120.
_cell_volume 1824.1
_cell_formula_units_Z 3
_symmetry_space_group_name_H-M 'R -3 H'
_symmetry_Int_Tables_number 148
_refine_ls_R_factor_all 0.032
loop_
_symmetry_equiv_pos_site_id
_symmetry_equiv_pos_as_xyz
1 'x-y, x, -z'
2 'y, -x+y, -z'
3 '-x, -y, -z'
4 '-x+y, -x, z'
5 '-y, x-y, z'
6 'x, y, z'
7 'x-y+2/3, x+1/3, -z+1/3'
8 'y+2/3, -x+y+1/3, -z+1/3'
9 '-x+2/3, -y+1/3, -z+1/3'
10 '-x+y+2/3, -x+1/3, z+1/3'
11 '-y+2/3, x-y+1/3, z+1/3'
12 'x+2/3, y+1/3, z+1/3'
13 'x-y+1/3, x+2/3, -z+2/3'
14 'y+1/3, -x+y+2/3, -z+2/3'
15 '-x+1/3, -y+2/3, -z+2/3'
16 '-x+y+1/3, -x+2/3, z+2/3'
17 '-y+1/3, x-y+2/3, z+2/3'
18 'x+1/3, y+2/3, z+2/3'
loop_
_atom_type_symbol
_atom_type_oxidation_number
I1- -1
Zr1+ 1.33
C4+ 4
loop_
_atom_site_label
_atom_site_type_symbol
_atom_site_symmetry_multiplicity
_atom_site_Wyckoff_symbol
_atom_site_fract_x
_atom_site_fract_y
_atom_site_fract_z
_atom_site_B_iso_or_equiv
_atom_site_occupancy
_atom_site_attached_hydrogens
I1 I1- 18 f 0.35525(4) 0.10257(4) 0.33250(6) . 1. 0
I2 I1- 18 f 0.12642(4) 0.17766(4) 0.32488(6) . 1. 0
Zr1 Zr1+ 18 f 0.14301(6) 0.04066(6) 0.13012(8) . 1. 0
C1 C4+ 3 a 0 0 0 . 1. 0
#End of TTdata_60918-ICSD