
data_609643-ICSD
_database_code_ICSD 609643
_audit_creation_date 2012-02-01
_chemical_name_systematic 'Yttrium aluminide (3/2)'
_chemical_formula_structural 'Y3 Al2'
_chemical_formula_sum 'Al2 Y3'
_chemical_name_structure_type Al2Gd3
_exptl_crystal_density_diffrn 4.13
_cell_length_a 8.222
_cell_length_b 8.222
_cell_length_c 7.62
_cell_angle_alpha 90.
_cell_angle_beta 90.
_cell_angle_gamma 90.
_cell_volume 515.12
_cell_formula_units_Z 4
_symmetry_space_group_name_H-M 'P 42 n m'
_symmetry_Int_Tables_number 102
loop_
_symmetry_equiv_pos_site_id
_symmetry_equiv_pos_as_xyz
1 '-y+1/2, x+1/2, z+1/2'
2 'y+1/2, -x+1/2, z+1/2'
3 '-y, -x, z'
4 'y, x, z'
5 '-x+1/2, y+1/2, z+1/2'
6 'x+1/2, -y+1/2, z+1/2'
7 '-x, -y, z'
8 'x, y, z'
loop_
_atom_type_symbol
_atom_type_oxidation_number
Al0+ 0
Y0+ 0
loop_
_atom_site_label
_atom_site_type_symbol
_atom_site_symmetry_multiplicity
_atom_site_Wyckoff_symbol
_atom_site_fract_x
_atom_site_fract_y
_atom_site_fract_z
_atom_site_B_iso_or_equiv
_atom_site_occupancy
_atom_site_attached_hydrogens
Al1 Al0+ 4 c 0.377 0.377 0.048 . 1. 0
Al2 Al0+ 4 c 0.396 0.396 0.456 . 1. 0
Y1 Y0+ 4 b 0 0.5 0.017 . 1. 0
Y2 Y0+ 4 c 0.152 0.152 0.268 . 1. 0
Y3 Y0+ 4 c 0.205 0.205 0.742 . 1. 0
