
data_60963-ICSD
_database_code_ICSD 60963
_audit_creation_date 1988-02-22
_audit_update_record 1999-11-30
_chemical_name_systematic 'Diantimony telluride diselenide'
_chemical_formula_structural 'Sb2 Te Se2'
_chemical_formula_sum 'Sb2 Se2 Te1'
_chemical_name_structure_type Cu5FeS4(hR5)
_exptl_crystal_density_diffrn 6.1
_cell_length_a 4.112(1)
_cell_length_b 4.112(1)
_cell_length_c 29.495(6)
_cell_angle_alpha 90.
_cell_angle_beta 90.
_cell_angle_gamma 120.
_cell_volume 431.9
_cell_formula_units_Z 3
_symmetry_space_group_name_H-M 'R 3 m H'
_symmetry_Int_Tables_number 160
_refine_ls_R_factor_all 0.0502
loop_
_symmetry_equiv_pos_site_id
_symmetry_equiv_pos_as_xyz
1 '-x+y, y, z'
2 'x, x-y, z'
3 '-y, -x, z'
4 '-x+y, -x, z'
5 '-y, x-y, z'
6 'x, y, z'
7 '-x+y+2/3, y+1/3, z+1/3'
8 'x+2/3, x-y+1/3, z+1/3'
9 '-y+2/3, -x+1/3, z+1/3'
10 '-x+y+2/3, -x+1/3, z+1/3'
11 '-y+2/3, x-y+1/3, z+1/3'
12 'x+2/3, y+1/3, z+1/3'
13 '-x+y+1/3, y+2/3, z+2/3'
14 'x+1/3, x-y+2/3, z+2/3'
15 '-y+1/3, -x+2/3, z+2/3'
16 '-x+y+1/3, -x+2/3, z+2/3'
17 '-y+1/3, x-y+2/3, z+2/3'
18 'x+1/3, y+2/3, z+2/3'
loop_
_atom_type_symbol
_atom_type_oxidation_number
Sb3+ 3
Te2- -2
Se2- -2
loop_
_atom_site_label
_atom_site_type_symbol
_atom_site_symmetry_multiplicity
_atom_site_Wyckoff_symbol
_atom_site_fract_x
_atom_site_fract_y
_atom_site_fract_z
_atom_site_B_iso_or_equiv
_atom_site_occupancy
_atom_site_attached_hydrogens
Sb1 Sb3+ 3 a 0 0 0.39 . 1. 0
Sb2 Sb3+ 3 a 0 0 0.5988(2) . 1. 0
Te1 Te2- 3 a 0 0 0.2080(3) . 1. 0
Se1 Se2- 3 a 0 0 0.7790(5) . 1. 0
Se2 Se2- 3 a 0 0 -.0049(6) . 1. 0
loop_
_atom_site_aniso_label
_atom_site_aniso_type_symbol
_atom_site_aniso_U_11
_atom_site_aniso_U_22
_atom_site_aniso_U_33
_atom_site_aniso_U_12
_atom_site_aniso_U_13
_atom_site_aniso_U_23
Sb1 Sb3+ 0.010(2) 0.010(2) 0.024(4) 0.005(1) 0 0
Sb2 Sb3+ 0.009(2) 0.009(2) 0.024(4) 0.005(1) 0 0
Te1 Te2- 0.008(2) 0.008(2) 0.029(5) 0.004(1) 0 0
Se1 Se2- 0.004(2) 0.004(2) 0.017(5) 0.002(1) 0 0
Se2 Se2- 0.007(1) 0.007(1) 0.017(2) 0.003(1) 0 0
