
data_609968-ICSD
_database_code_ICSD 609968
_audit_creation_date 2013-02-01
_chemical_name_systematic 'Sodium cadmium arsenide (1/1/1)'
_chemical_formula_structural 'Na Cd As'
_chemical_formula_sum 'As1 Cd1 Na1'
_exptl_crystal_density_diffrn 5.13
_cell_length_a 7.576
_cell_length_b 8.044
_cell_length_c 4.471
_cell_angle_alpha 90.
_cell_angle_beta 90.
_cell_angle_gamma 90.
_cell_volume 272.47
_cell_formula_units_Z 4
_symmetry_space_group_name_H-M 'P n a 21'
_symmetry_Int_Tables_number 33
loop_
_symmetry_equiv_pos_site_id
_symmetry_equiv_pos_as_xyz
1 'x+1/2, -y+1/2, z'
2 '-x+1/2, y+1/2, z+1/2'
3 '-x, -y, z+1/2'
4 'x, y, z'
loop_
_atom_type_symbol
_atom_type_oxidation_number
Cd2+ 2
Na1+ 1
As3- -3
loop_
_atom_site_label
_atom_site_type_symbol
_atom_site_symmetry_multiplicity
_atom_site_Wyckoff_symbol
_atom_site_fract_x
_atom_site_fract_y
_atom_site_fract_z
_atom_site_B_iso_or_equiv
_atom_site_occupancy
_atom_site_attached_hydrogens
Cd1 Cd2+ 4 a 0.207 0.37 0.25 . 1. 0
Na1 Na1+ 4 a 0.489 0.664 0.25 . 1. 0
As1 As3- 4 a 0.342 0.06 0.25 . 1. 0
