
data_610037-ICSD
_database_code_ICSD 610037
_audit_creation_date 2009-08-01
_chemical_name_systematic 'Cobalt arsenide (2/1)'
_chemical_formula_structural 'Co2 As'
_chemical_formula_sum 'As1 Co2'
_chemical_name_structure_type ZrNiAl-Fe2P
_exptl_crystal_density_diffrn 8.47
_cell_measurement_temperature 748.
_cell_length_a 6.066(20)
_cell_length_b 6.066(20)
_cell_length_c 3.557(10)
_cell_angle_alpha 90.
_cell_angle_beta 90.
_cell_angle_gamma 120.
_cell_volume 113.35
_cell_formula_units_Z 3
_symmetry_space_group_name_H-M 'P -6 2 m'
_symmetry_Int_Tables_number 189
loop_
_symmetry_equiv_pos_site_id
_symmetry_equiv_pos_as_xyz
1 '-x, -x+y, -z'
2 'x-y, -y, -z'
3 'y, x, -z'
4 '-x, -x+y, z'
5 'x-y, -y, z'
6 'y, x, z'
7 '-x+y, -x, -z'
8 '-y, x-y, -z'
9 'x, y, -z'
10 '-x+y, -x, z'
11 '-y, x-y, z'
12 'x, y, z'
loop_
_atom_type_symbol
_atom_type_oxidation_number
Co0+ 0
As0+ 0
loop_
_atom_site_label
_atom_site_type_symbol
_atom_site_symmetry_multiplicity
_atom_site_Wyckoff_symbol
_atom_site_fract_x
_atom_site_fract_y
_atom_site_fract_z
_atom_site_B_iso_or_equiv
_atom_site_occupancy
_atom_site_attached_hydrogens
Co1 Co0+ 3 f 0.253 0 0 . 1. 0
Co2 Co0+ 3 g 0.592 0 0.5 . 1. 0
As1 As0+ 2 c 0.3333 0.6667 0 . 1. 0
As2 As0+ 1 b 0 0 0.5 . 1. 0
