
#(C) 2017 by FIZ Karlsruhe - Leibniz Institute for Information Infrastructure.  All rights reserved.
data_61008-ICSD
_database_code_ICSD 61008
_audit_creation_date 1986-04-14
_audit_update_record 2006-04-01
_chemical_name_systematic 'Lead dibismuth diniobium oxide'
_chemical_formula_structural 'Pb Bi2 Nb2 O9'
_chemical_formula_sum 'Bi2 Nb2 O9 Pb1'
_chemical_name_structure_type Bi3NbTiO9
_exptl_crystal_density_diffrn 8.31
_publ_section_title 'The crystal structure of Pb Bi2 Nb2 O9'
loop_
_citation_id
_citation_journal_full
_citation_year
_citation_journal_volume
_citation_page_first
_citation_page_last
_citation_journal_id_ASTM
primary 'Wu Li Hsueh Pao (= Acta Physica Sinica)' 1985 34 946 950 WLHPAR
loop_
_publ_author_name
'Li, D.-Y.'
'Wang, P.-L.'
'Xu, Y.-Y.'
_cell_length_a 5.4806(7)
_cell_length_b 5.4791(7)
_cell_length_c 25.4160(30)
_cell_angle_alpha 90.
_cell_angle_beta 90.
_cell_angle_gamma 90.
_cell_volume 763.21
_cell_formula_units_Z 4
_symmetry_space_group_name_H-M 'F m m m'
_symmetry_Int_Tables_number 69
_refine_ls_R_factor_all 0.107
loop_
_symmetry_equiv_pos_site_id
_symmetry_equiv_pos_as_xyz
1 'x, y, -z'
2 'x, -y, z'
3 '-x, y, z'
4 '-x, -y, -z'
5 '-x, -y, z'
6 '-x, y, -z'
7 'x, -y, -z'
8 'x, y, z'
9 'x, y+1/2, -z+1/2'
10 'x, -y+1/2, z+1/2'
11 '-x, y+1/2, z+1/2'
12 '-x, -y+1/2, -z+1/2'
13 '-x, -y+1/2, z+1/2'
14 '-x, y+1/2, -z+1/2'
15 'x, -y+1/2, -z+1/2'
16 'x, y+1/2, z+1/2'
17 'x+1/2, y, -z+1/2'
18 'x+1/2, -y, z+1/2'
19 '-x+1/2, y, z+1/2'
20 '-x+1/2, -y, -z+1/2'
21 '-x+1/2, -y, z+1/2'
22 '-x+1/2, y, -z+1/2'
23 'x+1/2, -y, -z+1/2'
24 'x+1/2, y, z+1/2'
25 'x+1/2, y+1/2, -z'
26 'x+1/2, -y+1/2, z'
27 '-x+1/2, y+1/2, z'
28 '-x+1/2, -y+1/2, -z'
29 '-x+1/2, -y+1/2, z'
30 '-x+1/2, y+1/2, -z'
31 'x+1/2, -y+1/2, -z'
32 'x+1/2, y+1/2, z'
loop_
_atom_type_symbol
_atom_type_oxidation_number
Pb2+ 2
Bi3+ 3
Nb5+ 5
O2- -2
loop_
_atom_site_label
_atom_site_type_symbol
_atom_site_symmetry_multiplicity
_atom_site_Wyckoff_symbol
_atom_site_fract_x
_atom_site_fract_y
_atom_site_fract_z
_atom_site_B_iso_or_equiv
_atom_site_occupancy
_atom_site_attached_hydrogens
Pb1 Pb2+ 4 a 0 0 0 2.1(2) 1. 0
Bi1 Bi3+ 8 i 0 0 0.2009(1) 0.92(7) 1. 0
Nb1 Nb5+ 8 i 0.5 0 0.0882(2) 1.0(2) 1. 0
O1 O2- 4 b 0 0 0.5 11.(10) 1. 0
O2 O2- 8 i 0.5 0 0.1587(17) 2.(2) 1. 0
O3 O2- 8 f 0.25 0.25 0.25 1.(2) 1. 0
O4 O2- 16 j 0.25 0.25 0.0769(33) 5.(3) 1. 0
#End of TTdata_61008-ICSD