
#(C) 2017 by FIZ Karlsruhe - Leibniz Institute for Information Infrastructure, and the U.S. Secretary of
#Commerce on behalf of the United States.  All rights reserved.
data_610785-ICSD
_database_code_ICSD 610785
_audit_creation_date 2012-02-01
_chemical_name_systematic 'Lithium arsenide (3/1)'
_chemical_formula_structural 'Li3 As'
_chemical_formula_sum 'As1 Li3'
_chemical_name_structure_type Cu3As(HT)
_exptl_crystal_density_diffrn 2.97
_publ_section_title 'Ueber ternaere Phasen im System Lithium-Kupfer-Arsen'
_publ_section_comment 'Cell and Type only determined'
loop_
_citation_id
_citation_journal_full
_citation_year
_citation_journal_volume
_citation_page_first
_citation_page_last
_citation_journal_id_ASTM
primary 'Zeitschrift fuer Anorganische und Allgemeine Chemie (1950) (DE)' 1969
371 172 192 ZAACAB
loop_
_publ_author_name
'Benda, K.V.'
'Juza, R.'
_cell_length_a 7.124
_cell_length_b 7.124
_cell_length_c 7.296
_cell_angle_alpha 90.
_cell_angle_beta 90.
_cell_angle_gamma 120.
_cell_volume 320.67
_cell_formula_units_Z 6
_symmetry_space_group_name_H-M 'P -3 c 1'
_symmetry_Int_Tables_number 165
loop_
_symmetry_equiv_pos_site_id
_symmetry_equiv_pos_as_xyz
1 'x-y, -y, -z+1/2'
2 '-x, -x+y, -z+1/2'
3 'y, x, -z+1/2'
4 'x-y, x, -z'
5 'y, -x+y, -z'
6 '-x, -y, -z'
7 '-x+y, y, z+1/2'
8 'x, x-y, z+1/2'
9 '-y, -x, z+1/2'
10 '-x+y, -x, z'
11 '-y, x-y, z'
12 'x, y, z'
loop_
_atom_type_symbol
_atom_type_oxidation_number
Li1+ 1
As3- -3
loop_
_atom_site_label
_atom_site_type_symbol
_atom_site_symmetry_multiplicity
_atom_site_Wyckoff_symbol
_atom_site_fract_x
_atom_site_fract_y
_atom_site_fract_z
_atom_site_B_iso_or_equiv
_atom_site_occupancy
_atom_site_attached_hydrogens
Li1 Li1+ 2 b 0 0 0 . 1. 0
Li2 Li1+ 4 d 0.3333 0.6667 0.15 . 1. 0
Li3 Li1+ 12 g 0.68 0.07 0.08 . 1. 0
As1 As3- 6 f 0.33 0 0.25 . 1. 0
#End of TTdata_610785-ICSD