
#(C) 2017 by FIZ Karlsruhe - Leibniz Institute for Information Infrastructure, and the U.S. Secretary of
#Commerce on behalf of the United States.  All rights reserved.
data_611344-ICSD
_database_code_ICSD 611344
_audit_creation_date 2013-02-01
_chemical_name_systematic 'Yttrium arsenic sulfide (1/1/1)'
_chemical_formula_structural 'Y As S'
_chemical_formula_sum 'As1 S1 Y1'
_chemical_name_structure_type CeAsS
_exptl_crystal_density_diffrn 5.21
_publ_section_title

;
Le sulfoarseniure de cerium Ce As S et ses homologues avec les lanthanides et
l'yttrium
;
_publ_section_comment 'Cell and Type only determined'
loop_
_citation_id
_citation_journal_full
_citation_year
_citation_journal_volume
_citation_page_first
_citation_page_last
_citation_journal_id_ASTM
primary 'Journal of the Less-Common Metals' 1977 53 137 140 JCOMAH
loop_
_publ_author_name
'Ceolin, R.'
'Rodier, N.'
'Khodadad, P.'
_cell_length_a 3.9
_cell_length_b 16.85
_cell_length_c 5.42
_cell_angle_alpha 90.
_cell_angle_beta 135.5
_cell_angle_gamma 90.
_cell_volume 249.65
_cell_formula_units_Z 4
_symmetry_space_group_name_H-M 'P 1 21/c 1'
_symmetry_Int_Tables_number 14
loop_
_symmetry_equiv_pos_site_id
_symmetry_equiv_pos_as_xyz
1 'x, -y+1/2, z+1/2'
2 '-x, -y, -z'
3 '-x, y+1/2, -z+1/2'
4 'x, y, z'
loop_
_atom_type_symbol
_atom_type_oxidation_number
Y3+ 3
As1- -1
S2- -2
loop_
_atom_site_label
_atom_site_type_symbol
_atom_site_symmetry_multiplicity
_atom_site_Wyckoff_symbol
_atom_site_fract_x
_atom_site_fract_y
_atom_site_fract_z
_atom_site_B_iso_or_equiv
_atom_site_occupancy
_atom_site_attached_hydrogens
Y1 Y3+ 4 e 0.038 0.354 0.285 . 1. 0
As1 As1- 4 e 0.555 0.002 0.301 . 1. 0
S1 S2- 4 e 0.033 0.186 0.284 . 1. 0
#End of TTdata_611344-ICSD