
#(C) 2017 by FIZ Karlsruhe - Leibniz Institute for Information Infrastructure, and the U.S. Secretary of
#Commerce on behalf of the United States.  All rights reserved.
data_611614-ICSD
_database_code_ICSD 611614
_audit_creation_date 2012-02-01
_chemical_name_systematic 'Zirconium arsenide (7/4)'
_chemical_formula_structural 'Zr7 As4'
_chemical_formula_sum 'As4 Zr7'
_chemical_name_structure_type Nb7P4
_exptl_crystal_density_diffrn 7.19
_publ_section_title 'New phases in the Zr-P and Zr-As systems'
_publ_section_comment 'Cell and Type only determined'
loop_
_citation_id
_citation_journal_full
_citation_year
_citation_journal_volume
_citation_page_first
_citation_page_last
_citation_journal_id_ASTM
primary 'Acta Chemica Scandinavica, Series A: (28,1974-)' 1984 38 91 93 ACAPCT
loop_
_publ_author_name
'Willerstroem, J.O.'
_cell_length_a 16.2020(7)
_cell_length_b 3.6778(3)
_cell_length_c 15.0394(8)
_cell_angle_alpha 90.
_cell_angle_beta 104.66
_cell_angle_gamma 90.
_cell_volume 866.99
_cell_formula_units_Z 4
_symmetry_space_group_name_H-M 'C 1 2/m 1'
_symmetry_Int_Tables_number 12
loop_
_symmetry_equiv_pos_site_id
_symmetry_equiv_pos_as_xyz
1 '-x, y, -z'
2 '-x, -y, -z'
3 'x, -y, z'
4 'x, y, z'
5 '-x+1/2, y+1/2, -z'
6 '-x+1/2, -y+1/2, -z'
7 'x+1/2, -y+1/2, z'
8 'x+1/2, y+1/2, z'
loop_
_atom_type_symbol
_atom_type_oxidation_number
Zr0+ 0
As0+ 0
loop_
_atom_site_label
_atom_site_type_symbol
_atom_site_symmetry_multiplicity
_atom_site_Wyckoff_symbol
_atom_site_fract_x
_atom_site_fract_y
_atom_site_fract_z
_atom_site_B_iso_or_equiv
_atom_site_occupancy
_atom_site_attached_hydrogens
Zr1 Zr0+ 2 a 0 0 0 . 1. 0
Zr2 Zr0+ 2 d 0 0.5 0.5 . 1. 0
Zr3 Zr0+ 4 i 0.431 0 0.827 . 1. 0
Zr4 Zr0+ 4 i 0.195 0 0.312 . 1. 0
Zr5 Zr0+ 4 i 0.21 0 0.8 . 1. 0
Zr6 Zr0+ 4 i 0.338 0 0.028 . 1. 0
Zr7 Zr0+ 4 i 0.003 0 0.665 . 1. 0
Zr8 Zr0+ 4 i 0.175 0 0.54 . 1. 0
As1 As0+ 4 i 0.174 0 0.112 . 1. 0
As2 As0+ 4 i 0.374 0 0.602 . 1. 0
As3 As0+ 4 i 0.37 0 0.336 . 1. 0
As4 As0+ 4 i 0.064 0 0.849 . 1. 0
#End of TTdata_611614-ICSD