
data_611902-ICSD
_database_code_ICSD 611902
_audit_creation_date 2012-02-01
_chemical_name_systematic 'Vanadium gold gallide (3/1/1)'
_chemical_formula_structural 'V3 Au Ga'
_chemical_formula_sum 'Au1 Ga1 V3'
_chemical_name_structure_type AlAu4
_exptl_crystal_density_diffrn 9.16
_cell_length_a 6.726
_cell_length_b 6.726
_cell_length_c 6.726
_cell_angle_alpha 90.
_cell_angle_beta 90.
_cell_angle_gamma 90.
_cell_volume 304.28
_cell_formula_units_Z 4
_symmetry_space_group_name_H-M 'P 21 3'
_symmetry_Int_Tables_number 198
loop_
_symmetry_equiv_pos_site_id
_symmetry_equiv_pos_as_xyz
1 '-z+1/2, -x, y+1/2'
2 '-y+1/2, -z, x+1/2'
3 '-x+1/2, -y, z+1/2'
4 '-z, x+1/2, -y+1/2'
5 '-y, z+1/2, -x+1/2'
6 '-x, y+1/2, -z+1/2'
7 'z+1/2, -x+1/2, -y'
8 'y+1/2, -z+1/2, -x'
9 'x+1/2, -y+1/2, -z'
10 'z, x, y'
11 'y, z, x'
12 'x, y, z'
loop_
_atom_type_symbol
_atom_type_oxidation_number
Au0+ 0
Ga0+ 0
V0+ 0
loop_
_atom_site_label
_atom_site_type_symbol
_atom_site_symmetry_multiplicity
_atom_site_Wyckoff_symbol
_atom_site_fract_x
_atom_site_fract_y
_atom_site_fract_z
_atom_site_B_iso_or_equiv
_atom_site_occupancy
_atom_site_attached_hydrogens
Au1 Au0+ 4 a 0.064 0.064 0.064 . 1. 0
Ga1 Ga0+ 4 a 0.686 0.686 0.686 . 1. 0
V1 V0+ 12 b 0.133 0.201 0.462 . 1. 0
