
#(C) 2017 by FIZ Karlsruhe - Leibniz Institute for Information Infrastructure.  All rights reserved.
data_61265-ICSD
_database_code_ICSD 61265
_audit_creation_date 1987-03-16
_audit_update_record 2010-08-01
_chemical_name_systematic 'Heptascandium dodecaiodide carbide'
_chemical_formula_structural 'Sc7 I12 C'
_chemical_formula_sum 'C1 I12 Sc7'
_chemical_name_structure_type Sc7I12C
_exptl_crystal_density_diffrn 4.99
_publ_section_title

;
Synthesis, characterization, and crystal structures of two scandium cluster
carbides and a boride, Sc7 X12 C (X=I, Br) and Sc7 I12 B
;
loop_
_citation_id
_citation_journal_full
_citation_year
_citation_journal_volume
_citation_page_first
_citation_page_last
_citation_journal_id_ASTM
primary 'Inorganic Chemistry' 1986 25 3434 3438 INOCAJ
loop_
_publ_author_name
'Dudis, D.S.'
'Corbett, J.D.'
'Hwu, S.-J.'
_cell_length_a 14.717(1)
_cell_length_b 14.717(1)
_cell_length_c 9.847(2)
_cell_angle_alpha 90.
_cell_angle_beta 90.
_cell_angle_gamma 120.
_cell_volume 1847.03
_cell_formula_units_Z 3
_symmetry_space_group_name_H-M 'R 3 H'
_symmetry_Int_Tables_number 146
_refine_ls_R_factor_all 0.045
loop_
_symmetry_equiv_pos_site_id
_symmetry_equiv_pos_as_xyz
1 '-x+y, -x, z'
2 '-y, x-y, z'
3 'x, y, z'
4 '-x+y+2/3, -x+1/3, z+1/3'
5 '-y+2/3, x-y+1/3, z+1/3'
6 'x+2/3, y+1/3, z+1/3'
7 '-x+y+1/3, -x+2/3, z+2/3'
8 '-y+1/3, x-y+2/3, z+2/3'
9 'x+1/3, y+2/3, z+2/3'
loop_
_atom_type_symbol
_atom_type_oxidation_number
I1- -1
Sc2+ 2
C2- -2
loop_
_atom_site_label
_atom_site_type_symbol
_atom_site_symmetry_multiplicity
_atom_site_Wyckoff_symbol
_atom_site_fract_x
_atom_site_fract_y
_atom_site_fract_z
_atom_site_B_iso_or_equiv
_atom_site_occupancy
_atom_site_attached_hydrogens
I1 I1- 9 b 0.0773(2) 0.3065(2) 0.0008(3) 1.87(4) 1. 0
I2 I1- 9 b 0.1759(1) 0.051(2) 0.66735 1.78(4) 1. 0
I3 I1- 9 b 0.3063(2) 0.2269(2) 0.0034(3) 2.00(4) 1. 0
I4 I1- 9 b 0.1339(2) 0.1888(1) 0.3317(1) 1.65(3) 1. 0
Sc1 Sc2+ 3 a 0 0 0.4752(7) 2.2(1) 1. 0
Sc2 Sc2+ 9 b 0.1045(3) 0.1462(3) 0.8708(6) 1.6(1) 1. 0
Sc3 Sc2+ 9 b 0.1419(3) 0.0406(3) 0.1374(6) 1.58(9) 1. 0
C1 C2- 3 a 0 0 -.004 1.7(7) 1. 0
#End of TTdata_61265-ICSD