
#(C) 2017 by FIZ Karlsruhe - Leibniz Institute for Information Infrastructure.  All rights reserved.
data_61336-ICSD
_database_code_ICSD 61336
_audit_creation_date 1987-03-16
_chemical_name_systematic 'Tricalcium diindium tetraarsenide'
_chemical_formula_structural 'Ca3 In2 As4'
_chemical_formula_sum 'As4 Ca3 In2'
_chemical_name_structure_type Sr3In2P4
_exptl_crystal_density_diffrn 4.69
_publ_section_title

;
Sr3 In2 P4 und Ca3 In2 As4, Zintlphasen mit Baenderanionen aus kanten- und
eckenverknuepften In P4- bzw. In As4-Tetraedern
;
loop_
_citation_id
_citation_journal_full
_citation_year
_citation_journal_volume
_citation_page_first
_citation_page_last
_citation_journal_id_ASTM
primary

;
Zeitschrift fuer Naturforschung, Teil B. Anorganische Chemie, Organische
Chemie (33,1978-41,1986)
; 1986 41 1416 1419 ZNBAD2
loop_
_publ_author_name
'Cordier, G.'
'Schaefer, H.'
'Stelter, M.'
_cell_length_a 16.212(6)
_cell_length_b 6.595(3)
_cell_length_c 4.306(2)
_cell_angle_alpha 90.
_cell_angle_beta 90.
_cell_angle_gamma 90.
_cell_volume 460.39
_cell_formula_units_Z 2
_symmetry_space_group_name_H-M 'P n n m'
_symmetry_Int_Tables_number 58
_refine_ls_R_factor_all 0.072
loop_
_symmetry_equiv_pos_site_id
_symmetry_equiv_pos_as_xyz
1 'x+1/2, -y+1/2, z+1/2'
2 '-x+1/2, y+1/2, z+1/2'
3 'x, y, -z'
4 '-x, -y, -z'
5 '-x+1/2, y+1/2, -z+1/2'
6 'x+1/2, -y+1/2, -z+1/2'
7 '-x, -y, z'
8 'x, y, z'
loop_
_atom_type_symbol
_atom_type_oxidation_number
Ca2+ 2
In3+ 3
As3- -3
loop_
_atom_site_label
_atom_site_type_symbol
_atom_site_symmetry_multiplicity
_atom_site_Wyckoff_symbol
_atom_site_fract_x
_atom_site_fract_y
_atom_site_fract_z
_atom_site_B_iso_or_equiv
_atom_site_occupancy
_atom_site_attached_hydrogens
Ca1 Ca2+ 4 g 0.1961(3) 0.7244(10) 0 . 1. 0
Ca2 Ca2+ 2 a 0 0 0 . 1. 0
In1 In3+ 4 g 0.5879(1) 0.1381(3) 0 . 1. 0
As1 As3- 4 g 0.4294(2) 0.2567(4) 0 . 1. 0
As2 As3- 4 g 0.1721(2) 0.2302(5) 0 . 1. 0
loop_
_atom_site_aniso_label
_atom_site_aniso_type_symbol
_atom_site_aniso_U_11
_atom_site_aniso_U_22
_atom_site_aniso_U_33
_atom_site_aniso_U_12
_atom_site_aniso_U_13
_atom_site_aniso_U_23
Ca1 Ca2+ 0.0119(27) 0.0260(33) 0.0213(36) -.0029(24) 0 0
Ca2 Ca2+ 0.0158(38) 0.0164(39) 0.0138(45) -.0012(32) 0 0
In1 In3+ 0.0105(10) 0.0214(11) 0.0195(12) -.0022(8) 0 0
As1 As3- 0.0066(13) 0.0181(15) 0.0181(17) -.0023(11) 0 0
As2 As3- 0.0097(13) 0.0193(15) 0.0191(17) 0.0023(11) 0 0
#End of TTdata_61336-ICSD