
#(C) 2017 by FIZ Karlsruhe - Leibniz Institute for Information Infrastructure.  All rights reserved.
data_61378-ICSD
_database_code_ICSD 61378
_audit_creation_date 1988-02-22
_chemical_name_systematic 'Potassium Ruthenium oxide (2/8/16)'
_chemical_formula_structural 'K2 Ru8 O16'
_chemical_formula_sum 'K2 O16 Ru8'
_chemical_name_structure_type KRu4O8
_exptl_crystal_density_diffrn 6.23
_publ_section_title

;
Insertion de lithium dans la phase de structure Hollandite: Kx Ru8 O16 (x=1.5)
;
loop_
_citation_id
_citation_journal_full
_citation_year
_citation_journal_volume
_citation_page_first
_citation_page_last
_citation_journal_id_ASTM
primary 'Journal of the Less-Common Metals' 1985 109 323 329 JCOMAH
loop_
_publ_author_name
'Djafri, F.'
'Canonne, J.'
'Abraham, F.'
'Thomas, D.'
_cell_length_a 9.866(4)
_cell_length_b 9.866(4)
_cell_length_c 3.131(2)
_cell_angle_alpha 90.
_cell_angle_beta 90.
_cell_angle_gamma 90.
_cell_volume 304.77
_cell_formula_units_Z 1
_symmetry_space_group_name_H-M 'I 4/m'
_symmetry_Int_Tables_number 87
_refine_ls_R_factor_all 0.026
loop_
_symmetry_equiv_pos_site_id
_symmetry_equiv_pos_as_xyz
1 '-y, x, -z'
2 'y, -x, -z'
3 'x, y, -z'
4 '-x, -y, -z'
5 'y, -x, z'
6 '-y, x, z'
7 '-x, -y, z'
8 'x, y, z'
9 '-y+1/2, x+1/2, -z+1/2'
10 'y+1/2, -x+1/2, -z+1/2'
11 'x+1/2, y+1/2, -z+1/2'
12 '-x+1/2, -y+1/2, -z+1/2'
13 'y+1/2, -x+1/2, z+1/2'
14 '-y+1/2, x+1/2, z+1/2'
15 '-x+1/2, -y+1/2, z+1/2'
16 'x+1/2, y+1/2, z+1/2'
loop_
_atom_type_symbol
_atom_type_oxidation_number
K1+ 1
Ru3+ 3.75
O2- -2
loop_
_atom_site_label
_atom_site_type_symbol
_atom_site_symmetry_multiplicity
_atom_site_Wyckoff_symbol
_atom_site_fract_x
_atom_site_fract_y
_atom_site_fract_z
_atom_site_B_iso_or_equiv
_atom_site_occupancy
_atom_site_attached_hydrogens
K1 K1+ 2 b 0 0 0.5 . 1. 0
Ru1 Ru3+ 8 h 0.35023(3) 0.16757(3) 0 . 1. 0
O1 O2- 8 h 0.149070(35) 0.19834(35) 0 . 1. 0
O2 O2- 8 h 0.54518(33) 0.15802(35) 0 . 1. 0
loop_
_atom_site_aniso_label
_atom_site_aniso_type_symbol
_atom_site_aniso_beta_11
_atom_site_aniso_beta_22
_atom_site_aniso_beta_33
_atom_site_aniso_beta_12
_atom_site_aniso_beta_13
_atom_site_aniso_beta_23
K1 K1+ 0.00423(18) 0.00423(18) 0.0303(22) 0 0 0
Ru1 Ru3+ 0.00118(2) 0.00106(2) 0.00269(19) -.00003(2) 0 0
O1 O2- 0.00158(22) 0.00138(21) 0.0059(20) 0.00016(17) 0 0
O2 O2- 0.00111(20) 0.00177(22) 0.0038(18) 0.00016(18) 0 0
#End of TTdata_61378-ICSD