
#(C) 2017 by FIZ Karlsruhe - Leibniz Institute for Information Infrastructure.  All rights reserved.
data_61381-ICSD
_database_code_ICSD 61381
_audit_creation_date 1988-02-22
_audit_update_record 2012-08-01
_chemical_name_systematic 'Yttrium dirhodium silicide'
_chemical_formula_structural 'Y Rh2 Si'
_chemical_formula_sum 'Rh2 Si1 Y1'
_exptl_crystal_density_diffrn 8.09
_publ_section_title 'Structure of Y Rh2 Si : An ordered Ce Ni3 type'
loop_
_citation_id
_citation_journal_full
_citation_year
_citation_journal_volume
_citation_page_first
_citation_page_last
_citation_journal_id_ASTM
primary 'Journal of the Less-Common Metals' 1985 109 229 232 JCOMAH
loop_
_publ_author_name
'Paccard, L.'
'Paccard, D.'
_cell_length_a 5.495(2)
_cell_length_b 5.495(2)
_cell_length_c 15.030(5)
_cell_angle_alpha 90.
_cell_angle_beta 90.
_cell_angle_gamma 120.
_cell_volume 393.03
_cell_formula_units_Z 6
_symmetry_space_group_name_H-M 'P 63/m m c'
_symmetry_Int_Tables_number 194
_refine_ls_R_factor_all 0.071
loop_
_symmetry_equiv_pos_site_id
_symmetry_equiv_pos_as_xyz
1 'x, x-y, -z+1/2'
2 '-x+y, y, -z+1/2'
3 '-y, -x, -z+1/2'
4 '-x+y, -x, -z+1/2'
5 '-y, x-y, -z+1/2'
6 'x, y, -z+1/2'
7 '-x, -x+y, z+1/2'
8 'x-y, -y, z+1/2'
9 'y, x, z+1/2'
10 'x-y, x, z+1/2'
11 'y, -x+y, z+1/2'
12 '-x, -y, z+1/2'
13 '-x, -x+y, -z'
14 'x-y, -y, -z'
15 'y, x, -z'
16 'x-y, x, -z'
17 'y, -x+y, -z'
18 '-x, -y, -z'
19 'x, x-y, z'
20 '-x+y, y, z'
21 '-y, -x, z'
22 '-x+y, -x, z'
23 '-y, x-y, z'
24 'x, y, z'
loop_
_atom_type_symbol
_atom_type_oxidation_number
Y0+ 0
Rh0+ 0
Si0+ 0
loop_
_atom_site_label
_atom_site_type_symbol
_atom_site_symmetry_multiplicity
_atom_site_Wyckoff_symbol
_atom_site_fract_x
_atom_site_fract_y
_atom_site_fract_z
_atom_site_B_iso_or_equiv
_atom_site_occupancy
_atom_site_attached_hydrogens
Y1 Y0+ 2 c 0.3333 0.6667 0.25 0.5(1) 1. 0
Y2 Y0+ 4 f 0.3333 0.6667 0.0369(5) 0.54(7) 1. 0
Rh1 Rh0+ 12 k 0.8334 0.6668 0.1310(2) 0.35(3) 1. 0
Si1 Si0+ 2 a 0 0 0 0.1(3) 1. 0
Si2 Si0+ 2 b 0 0 0.25 2.1(4) 1. 0
Si3 Si0+ 2 d 0.3333 0.6667 0.75 0.3(3) 1. 0
#End of TTdata_61381-ICSD