
#(C) 2017 by FIZ Karlsruhe - Leibniz Institute for Information Infrastructure, and the U.S. Secretary of
#Commerce on behalf of the United States.  All rights reserved.
data_614583-ICSD
_database_code_ICSD 614583
_audit_creation_date 2013-02-01
_chemical_name_systematic 'Zirconium iridium boride (1/3/4)'
_chemical_formula_structural 'Zr Ir3 B4'
_chemical_formula_sum 'B4 Ir3 Zr1'
_chemical_name_structure_type HfIr3B4
_exptl_crystal_density_diffrn 13.64
_publ_section_title 'Studies of the (Sc, Zr, Hf) - (Rh, Ir) - B systems'
_publ_section_comment 'Cell and Type only determined'
loop_
_citation_id
_citation_journal_full
_citation_year
_citation_journal_volume
_citation_page_first
_citation_page_last
_citation_journal_id_ASTM
primary 'Journal of the Less-Common Metals' 1979 67 41 50 JCOMAH
loop_
_publ_author_name
'Rogl, P.'
'Nowotny, H.'
_cell_length_a 7.560(2)
_cell_length_b 7.560(2)
_cell_length_c 3.512(2)
_cell_angle_alpha 90.
_cell_angle_beta 90.
_cell_angle_gamma 120.
_cell_volume 173.83
_cell_formula_units_Z 2
_symmetry_space_group_name_H-M 'P 63/m'
_symmetry_Int_Tables_number 176
loop_
_symmetry_equiv_pos_site_id
_symmetry_equiv_pos_as_xyz
1 '-x+y, -x, -z+1/2'
2 '-y, x-y, -z+1/2'
3 'x, y, -z+1/2'
4 'x-y, x, -z'
5 'y, -x+y, -z'
6 '-x, -y, -z'
7 'x-y, x, z+1/2'
8 'y, -x+y, z+1/2'
9 '-x, -y, z+1/2'
10 '-x+y, -x, z'
11 '-y, x-y, z'
12 'x, y, z'
loop_
_atom_type_symbol
_atom_type_oxidation_number
Ir0+ 0
Zr0+ 0
B0+ 0
loop_
_atom_site_label
_atom_site_type_symbol
_atom_site_symmetry_multiplicity
_atom_site_Wyckoff_symbol
_atom_site_fract_x
_atom_site_fract_y
_atom_site_fract_z
_atom_site_B_iso_or_equiv
_atom_site_occupancy
_atom_site_attached_hydrogens
Ir1 Ir0+ 6 h 0.073 0.328 0.25 . 1. 0
Zr1 Zr0+ 2 d 0.3333 0.6667 0.75 . 1. 0
B1 B0+ 6 h 0.395 0.439 0.25 . 1. 0
B2 B0+ 2 b 0 0 0 . 1. 0
#End of TTdata_614583-ICSD