
#(C) 2017 by FIZ Karlsruhe - Leibniz Institute for Information Infrastructure, and the U.S. Secretary of
#Commerce on behalf of the United States.  All rights reserved.
data_614640-ICSD
_database_code_ICSD 614640
_audit_creation_date 2012-02-01
_chemical_name_systematic 'Lanthanum rhenium boride (1/4/4)'
_chemical_formula_structural 'La Re4 B4'
_chemical_formula_sum 'B4 La1 Re4'
_chemical_name_structure_type CeCo4B4
_exptl_crystal_density_diffrn 14.81
_publ_section_title 'Y-Re-B and La-Re-B systems'
_publ_section_comment 'Cell and Type only determined'
loop_
_citation_id
_citation_journal_full
_citation_year
_citation_journal_volume
_citation_page_first
_citation_page_last
_citation_journal_id_ASTM
primary 'Soviet powder metallurgy and metal ceramics' 1977 16 36 38 SPMCAV
loop_
_publ_author_name
'Mikhalenko, S.I.'
'Kuz'ma, Yu.B.'
'Sobolev, A.S.'
_cell_length_a 5.3
_cell_length_b 5.3
_cell_length_c 7.4
_cell_angle_alpha 90.
_cell_angle_beta 90.
_cell_angle_gamma 90.
_cell_volume 207.87
_cell_formula_units_Z 2
_symmetry_space_group_name_H-M 'P 42/n m c Z'
_symmetry_Int_Tables_number 137
loop_
_symmetry_equiv_pos_site_id
_symmetry_equiv_pos_as_xyz
1 'y+1/2, x+1/2, -z+1/2'
2 '-y, x+1/2, -z+1/2'
3 'y+1/2, -x, -z+1/2'
4 '-y, -x, -z+1/2'
5 'x+1/2, y+1/2, -z'
6 '-x, y+1/2, -z'
7 'x+1/2, -y, -z'
8 '-x, -y, -z'
9 '-y+1/2, -x+1/2, z+1/2'
10 'y, -x+1/2, z+1/2'
11 '-y+1/2, x, z+1/2'
12 'y, x, z+1/2'
13 '-x+1/2, -y+1/2, z'
14 'x, -y+1/2, z'
15 '-x+1/2, y, z'
16 'x, y, z'
loop_
_atom_type_symbol
_atom_type_oxidation_number
La0+ 0
Re0+ 0
B0+ 0
loop_
_atom_site_label
_atom_site_type_symbol
_atom_site_symmetry_multiplicity
_atom_site_Wyckoff_symbol
_atom_site_fract_x
_atom_site_fract_y
_atom_site_fract_z
_atom_site_B_iso_or_equiv
_atom_site_occupancy
_atom_site_attached_hydrogens
La1 La0+ 2 b 0.75 0.25 0.25 . 1. 0
Re1 Re0+ 8 g 0.25 0.501 0.395 . 1. 0
B1 B0+ 8 g 0.25 0.077 0.097 . 1. 0
#End of TTdata_614640-ICSD