
#(C) 2017 by FIZ Karlsruhe - Leibniz Institute for Information Infrastructure, and the U.S. Secretary of
#Commerce on behalf of the United States.  All rights reserved.
data_615278-ICSD
_database_code_ICSD 615278
_audit_creation_date 2012-02-01
_chemical_name_systematic 'Yttrium rhenium boride (1/1/4)'
_chemical_formula_structural 'Y Re B4'
_chemical_formula_sum 'B4 Re1 Y1'
_chemical_name_structure_type FeSmB4-CrYB4
_exptl_crystal_density_diffrn 8.58
_publ_section_title 'New ternary borides with a structure of the T Y Cr B4 type'
_publ_section_comment 'Cell and Type only determined'
loop_
_citation_id
_citation_journal_full
_citation_year
_citation_journal_volume
_citation_page_first
_citation_page_last
_citation_journal_id_ASTM
primary

;
Dopovidi Akademii Nauk Ukrains'koi RSR, Seriya A: Fiziko-Tekhnichni ta
Matematichni Nauki
; 1972 1972 166 169 DUKABM
loop_
_publ_author_name
'Kuz'ma, Yu.B.'
'Svarichevskaya, S.I.'
_cell_length_a 6.000(5)
_cell_length_b 11.48(1)
_cell_length_c 3.577(5)
_cell_angle_alpha 90.
_cell_angle_beta 90.
_cell_angle_gamma 90.
_cell_volume 246.38
_cell_formula_units_Z 4
_symmetry_space_group_name_H-M 'P b a m'
_symmetry_Int_Tables_number 55
loop_
_symmetry_equiv_pos_site_id
_symmetry_equiv_pos_as_xyz
1 'x+1/2, -y+1/2, z'
2 '-x+1/2, y+1/2, z'
3 'x, y, -z'
4 '-x, -y, -z'
5 '-x+1/2, y+1/2, -z'
6 'x+1/2, -y+1/2, -z'
7 '-x, -y, z'
8 'x, y, z'
loop_
_atom_type_symbol
_atom_type_oxidation_number
Re0+ 0
Y0+ 0
B0+ 0
loop_
_atom_site_label
_atom_site_type_symbol
_atom_site_symmetry_multiplicity
_atom_site_Wyckoff_symbol
_atom_site_fract_x
_atom_site_fract_y
_atom_site_fract_z
_atom_site_B_iso_or_equiv
_atom_site_occupancy
_atom_site_attached_hydrogens
Re1 Re0+ 4 g 0.131 0.414 0 . 1. 0
Y1 Y0+ 4 g 0.125 0.151 0 . 1. 0
B1 B0+ 4 h 0.281 0.316 0.5 . 1. 0
B2 B0+ 4 h 0.368 0.469 0.5 . 1. 0
B3 B0+ 4 h 0.389 0.046 0.5 . 1. 0
B4 B0+ 4 h 0.484 0.189 0.5 . 1. 0
#End of TTdata_615278-ICSD