
#(C) 2017 by FIZ Karlsruhe - Leibniz Institute for Information Infrastructure, and the U.S. Secretary of
#Commerce on behalf of the United States.  All rights reserved.
data_615399-ICSD
_database_code_ICSD 615399
_audit_creation_date 2012-02-01
_chemical_name_systematic 'Yttrium ruthenium boride (1/1/2)'
_chemical_formula_structural 'Y Ru B2'
_chemical_formula_sum 'B2 Ru1 Y1'
_chemical_name_structure_type LuRuB2
_exptl_crystal_density_diffrn 7.04
_publ_section_title
'Comparative critical field study of superconducting ternary borides'
_publ_section_comment 'Cell and Type only determined'
loop_
_citation_id
_citation_journal_full
_citation_year
_citation_journal_volume
_citation_page_first
_citation_page_last
_citation_journal_id_ASTM
primary 'Journal of Low Temperature Physics' 1987 68 147 157 JLTPAC
loop_
_publ_author_name
'Lee, W.H.'
'Appl, S.'
'Shelton, R.N.'
_cell_length_a 5.910(1)
_cell_length_b 5.306(1)
_cell_length_c 6.363(1)
_cell_angle_alpha 90.
_cell_angle_beta 90.
_cell_angle_gamma 90.
_cell_volume 199.53
_cell_formula_units_Z 4
_symmetry_space_group_name_H-M 'P n m a'
_symmetry_Int_Tables_number 62
loop_
_symmetry_equiv_pos_site_id
_symmetry_equiv_pos_as_xyz
1 'x+1/2, y, -z+1/2'
2 'x, -y+1/2, z'
3 '-x+1/2, y+1/2, z+1/2'
4 '-x, -y, -z'
5 '-x+1/2, -y, z+1/2'
6 '-x, y+1/2, -z'
7 'x+1/2, -y+1/2, -z+1/2'
8 'x, y, z'
loop_
_atom_type_symbol
_atom_type_oxidation_number
Y0+ 0
Ru0+ 0
B0+ 0
loop_
_atom_site_label
_atom_site_type_symbol
_atom_site_symmetry_multiplicity
_atom_site_Wyckoff_symbol
_atom_site_fract_x
_atom_site_fract_y
_atom_site_fract_z
_atom_site_B_iso_or_equiv
_atom_site_occupancy
_atom_site_attached_hydrogens
Y1 Y0+ 4 c 0.011 0.25 0.665 . 1. 0
Ru1 Ru0+ 4 c 0.182 0.25 0.182 . 1. 0
B1 B0+ 8 d 0.358 0.084 0.464 . 1. 0
#End of TTdata_615399-ICSD