
#(C) 2017 by FIZ Karlsruhe - Leibniz Institute for Information Infrastructure, and the U.S. Secretary of
#Commerce on behalf of the United States.  All rights reserved.
data_615799-ICSD
_database_code_ICSD 615799
_audit_creation_date 2013-02-01
_chemical_name_systematic 'Barium calcium plumbide (1/1/1)'
_chemical_formula_structural 'Ba Ca Pb'
_chemical_formula_sum 'Ba1 Ca1 Pb1'
_chemical_name_structure_type TiNiSi-MgSrSi
_exptl_crystal_density_diffrn 5.42
_publ_section_title 'Neue intermetallische Verbindungen im anti - Pb Cl2 Typ'
_publ_section_comment 'Cell and Type only determined'
loop_
_citation_id
_citation_journal_full
_citation_year
_citation_journal_volume
_citation_page_first
_citation_page_last
_citation_journal_id_ASTM
primary

;
Zeitschrift fuer Naturforschung, Teil B. Anorganische Chemie, Organische
Chemie (33,1978-41,1986)
; 1975 30 677 680 ZNBAD2
loop_
_publ_author_name
'Eisenmann, B.'
'Schaefer, H.'
'Turban, K.'
_cell_length_a 8.85(2)
_cell_length_b 5.32(2)
_cell_length_c 10.01(2)
_cell_angle_alpha 90.
_cell_angle_beta 90.
_cell_angle_gamma 90.
_cell_volume 471.29
_cell_formula_units_Z 4
_symmetry_space_group_name_H-M 'P n m a'
_symmetry_Int_Tables_number 62
loop_
_symmetry_equiv_pos_site_id
_symmetry_equiv_pos_as_xyz
1 'x+1/2, y, -z+1/2'
2 'x, -y+1/2, z'
3 '-x+1/2, y+1/2, z+1/2'
4 '-x, -y, -z'
5 '-x+1/2, -y, z+1/2'
6 '-x, y+1/2, -z'
7 'x+1/2, -y+1/2, -z+1/2'
8 'x, y, z'
loop_
_atom_type_symbol
_atom_type_oxidation_number
Ba0+ 0
Ca0+ 0
Pb0+ 0
loop_
_atom_site_label
_atom_site_type_symbol
_atom_site_symmetry_multiplicity
_atom_site_Wyckoff_symbol
_atom_site_fract_x
_atom_site_fract_y
_atom_site_fract_z
_atom_site_B_iso_or_equiv
_atom_site_occupancy
_atom_site_attached_hydrogens
Ba1 Ba0+ 4 c 0.521 0.25 0.681 . 1. 0
Ca1 Ca0+ 4 c 0.646 0.25 0.07 . 1. 0
Pb1 Pb0+ 4 c 0.274 0.25 0.107 . 1. 0
#End of TTdata_615799-ICSD