
#(C) 2017 by FIZ Karlsruhe - Leibniz Institute for Information Infrastructure, and the U.S. Secretary of
#Commerce on behalf of the United States.  All rights reserved.
data_615782-ICSD
_database_code_ICSD 615782
_audit_creation_date 2008-08-01
_audit_update_record 2017-08-01
_chemical_name_systematic 'Barium bismuth (1/3)'
_chemical_formula_structural 'Ba Bi3'
_chemical_formula_sum 'Ba1 Bi3'
_chemical_name_structure_type CuInPt2
_exptl_crystal_density_diffrn 9.13
_publ_section_title

;
Oscillatory dependence of superconductive critical temperature on number of
valency electrons in Cu3Au-type alloys
;
loop_
_citation_id
_citation_journal_full
_citation_year
_citation_journal_volume
_citation_page_first
_citation_page_last
_citation_journal_id_ASTM
primary 'Journal of Physics and Chemistry of Solids' 1970 31 2653 2662 JPCSAW
loop_
_publ_author_name
'Havinga, E.E.'
'Damsma, H.'
'Maaren, M.H. van'
_cell_length_a 5.19
_cell_length_b 5.19
_cell_length_c 5.16
_cell_angle_alpha 90.
_cell_angle_beta 90.
_cell_angle_gamma 90.
_cell_volume 138.99
_cell_formula_units_Z 1
_symmetry_space_group_name_H-M 'P 4/m m m'
_symmetry_Int_Tables_number 123
loop_
_symmetry_equiv_pos_site_id
_symmetry_equiv_pos_as_xyz
1 'y, x, -z'
2 '-y, -x, -z'
3 '-y, x, -z'
4 'y, -x, -z'
5 '-x, y, -z'
6 'x, -y, -z'
7 'x, y, -z'
8 '-x, -y, -z'
9 '-y, -x, z'
10 'y, x, z'
11 'y, -x, z'
12 '-y, x, z'
13 'x, -y, z'
14 '-x, y, z'
15 '-x, -y, z'
16 'x, y, z'
loop_
_atom_type_symbol
_atom_type_oxidation_number
Ba0+ 0
Bi0+ 0
loop_
_atom_site_label
_atom_site_type_symbol
_atom_site_symmetry_multiplicity
_atom_site_Wyckoff_symbol
_atom_site_fract_x
_atom_site_fract_y
_atom_site_fract_z
_atom_site_B_iso_or_equiv
_atom_site_occupancy
_atom_site_attached_hydrogens
Ba1 Ba0+ 1 a 0 0 0 . 1 0
Bi1 Bi0+ 1 c 0.5 0.5 0 . 1 0
Bi2 Bi0+ 2 e 0 0.5 0.5 . 1 0
#End of TTdata_615782-ICSD