
#(C) 2017 by FIZ Karlsruhe - Leibniz Institute for Information Infrastructure, and the U.S. Secretary of
#Commerce on behalf of the United States.  All rights reserved.
data_616892-ICSD
_database_code_ICSD 616892
_audit_creation_date 2012-02-01
_chemical_name_systematic 'Osmium bismuth selenide (1/1/1)'
_chemical_formula_structural 'Os Bi Se'
_chemical_formula_sum 'Bi1 Os1 Se1'
_chemical_name_structure_type FeAsS-CoSb2
_exptl_crystal_density_diffrn 12.54
_publ_section_title
'High pressure synthesis of arsenopyrite-type ternary compounds'
_publ_section_comment 'Cell and Type only determined'
loop_
_citation_id
_citation_journal_full
_citation_year
_citation_journal_volume
_citation_page_first
_citation_page_last
_citation_journal_id_ASTM
primary 'Materials Research Bulletin' 1966 1 3 12 MRBUAC
loop_
_publ_author_name
'Banus, M.D.'
'Lavine, M.C.'
_cell_length_a 6.52(3)
_cell_length_b 6.46(3)
_cell_length_c 6.57(3)
_cell_angle_alpha 90.
_cell_angle_beta 113.8
_cell_angle_gamma 90.
_cell_volume 253.19
_cell_formula_units_Z 4
_symmetry_space_group_name_H-M 'P 1 21/c 1'
_symmetry_Int_Tables_number 14
loop_
_symmetry_equiv_pos_site_id
_symmetry_equiv_pos_as_xyz
1 'x, -y+1/2, z+1/2'
2 '-x, -y, -z'
3 '-x, y+1/2, -z+1/2'
4 'x, y, z'
loop_
_atom_type_symbol
_atom_type_oxidation_number
Os3+ 3
Se1- -1
Bi2- -2
loop_
_atom_site_label
_atom_site_type_symbol
_atom_site_symmetry_multiplicity
_atom_site_Wyckoff_symbol
_atom_site_fract_x
_atom_site_fract_y
_atom_site_fract_z
_atom_site_B_iso_or_equiv
_atom_site_occupancy
_atom_site_attached_hydrogens
Os1 Os3+ 4 e 0.273 0.004 0.281 . 1. 0
Se1 Se1- 4 e 0.344 0.369 0.172 . 1. 0
Bi1 Bi2- 4 e 0.149 0.629 0.364 . 1. 0
#End of TTdata_616892-ICSD