
#(C) 2017 by FIZ Karlsruhe - Leibniz Institute for Information Infrastructure, and the U.S. Secretary of
#Commerce on behalf of the United States.  All rights reserved.
data_616954-ICSD
_database_code_ICSD 616954
_audit_creation_date 2012-02-01
_audit_update_record 2012-08-01
_chemical_name_systematic 'Palladium bismuth sulfide (3/2/2)'
_chemical_formula_structural 'Pd3 Bi2 S2'
_chemical_formula_sum 'Bi2 Pd3 S2'
_chemical_name_structure_type Ni3Bi2Se2
_exptl_crystal_density_diffrn 9.28
_publ_section_title 'Neue ternaere Chalkogenide M3 M'2 X2 mit Parkeritstruktur'
_publ_section_comment 'Cell and Type only determined'
loop_
_citation_id
_citation_journal_full
_citation_year
_citation_journal_volume
_citation_page_first
_citation_page_last
_citation_journal_id_ASTM
primary 'Revue de Chimie Minerale' 1983 20 698 711 RVCMA8
loop_
_publ_author_name
'Range, K.J.'
'Zabel, M.'
'Wandinger, S.'
'Bortner, H.P.'
_cell_length_a 11.745
_cell_length_b 8.312
_cell_length_c 8.306
_cell_angle_alpha 90.
_cell_angle_beta 134.99
_cell_angle_gamma 90.
_cell_volume 573.47
_cell_formula_units_Z 4
_symmetry_space_group_name_H-M 'C 1 2/m 1'
_symmetry_Int_Tables_number 12
loop_
_symmetry_equiv_pos_site_id
_symmetry_equiv_pos_as_xyz
1 '-x, y, -z'
2 '-x, -y, -z'
3 'x, -y, z'
4 'x, y, z'
5 '-x+1/2, y+1/2, -z'
6 '-x+1/2, -y+1/2, -z'
7 'x+1/2, -y+1/2, z'
8 'x+1/2, y+1/2, z'
loop_
_atom_type_symbol
_atom_type_oxidation_number
Bi0+ 0
S0+ 0
Pd0+ 0
loop_
_atom_site_label
_atom_site_type_symbol
_atom_site_symmetry_multiplicity
_atom_site_Wyckoff_symbol
_atom_site_fract_x
_atom_site_fract_y
_atom_site_fract_z
_atom_site_B_iso_or_equiv
_atom_site_occupancy
_atom_site_attached_hydrogens
Bi1 Bi0+ 4 i 0.251 0 0.257 . 1. 0
Bi2 Bi0+ 4 i 0.218 0 0.702 . 1. 0
S1 S0+ 8 j 0.027 0.283 0.81 . 1. 0
Pd1 Pd0+ 4 f 0.25 0.25 0.5 . 1. 0
Pd2 Pd0+ 4 i 0.018 0 0.79 . 1. 0
Pd3 Pd0+ 4 h 0 0.274 0.5 . 1. 0
#End of TTdata_616954-ICSD