
#(C) 2017 by FIZ Karlsruhe - Leibniz Institute for Information Infrastructure.  All rights reserved.
data_61788-ICSD
_database_code_ICSD 61788
_audit_creation_date 1988-02-22
_audit_update_record 2005-10-01
_chemical_name_systematic 'Potassium antimony bis(phosphate(V))'
_chemical_formula_structural 'K Sb (P O4)2'
_chemical_formula_sum 'K1 O8 P2 Sb1'
_chemical_name_structure_type KV(SO4)2
_exptl_crystal_density_diffrn 3.5
_publ_section_title 'Crystal structure of K Sb P2 O8'
loop_
_citation_id
_citation_journal_full
_citation_year
_citation_journal_volume
_citation_page_first
_citation_page_last
_citation_journal_id_ASTM
primary 'Journal of Solid State Chemistry' 1985 60 209 213 JSSCBI
loop_
_publ_author_name
'Piffard, Y.'
'Oyetola, S.'
'Courant, S.'
'Lachgar, A.'
_cell_length_a 4.7623(4)
_cell_length_b 4.7623(4)
_cell_length_c 25.409(4)
_cell_angle_alpha 90.
_cell_angle_beta 90.
_cell_angle_gamma 120.
_cell_volume 499.06
_cell_formula_units_Z 3
_symmetry_space_group_name_H-M 'R -3 H'
_symmetry_Int_Tables_number 148
_refine_ls_R_factor_all 0.03
loop_
_symmetry_equiv_pos_site_id
_symmetry_equiv_pos_as_xyz
1 'x-y, x, -z'
2 'y, -x+y, -z'
3 '-x, -y, -z'
4 '-x+y, -x, z'
5 '-y, x-y, z'
6 'x, y, z'
7 'x-y+2/3, x+1/3, -z+1/3'
8 'y+2/3, -x+y+1/3, -z+1/3'
9 '-x+2/3, -y+1/3, -z+1/3'
10 '-x+y+2/3, -x+1/3, z+1/3'
11 '-y+2/3, x-y+1/3, z+1/3'
12 'x+2/3, y+1/3, z+1/3'
13 'x-y+1/3, x+2/3, -z+2/3'
14 'y+1/3, -x+y+2/3, -z+2/3'
15 '-x+1/3, -y+2/3, -z+2/3'
16 '-x+y+1/3, -x+2/3, z+2/3'
17 '-y+1/3, x-y+2/3, z+2/3'
18 'x+1/3, y+2/3, z+2/3'
loop_
_atom_type_symbol
_atom_type_oxidation_number
Sb5+ 5
K1+ 1
P5+ 5
O2- -2
loop_
_atom_site_label
_atom_site_type_symbol
_atom_site_symmetry_multiplicity
_atom_site_Wyckoff_symbol
_atom_site_fract_x
_atom_site_fract_y
_atom_site_fract_z
_atom_site_B_iso_or_equiv
_atom_site_occupancy
_atom_site_attached_hydrogens
Sb1 Sb5+ 3 a 0 0 0 . 1. 0
K1 K1+ 3 b 0 0 0.5 . 1. 0
P1 P5+ 6 c 0 0 0.26473(5) . 1. 0
O1 O2- 6 c 0 0 0.2067 . 1. 0
O2 O2- 18 f 0.9556(5) 0.3050(5) 0.04565(9) . 1. 0
loop_
_atom_site_aniso_label
_atom_site_aniso_type_symbol
_atom_site_aniso_beta_11
_atom_site_aniso_beta_22
_atom_site_aniso_beta_33
_atom_site_aniso_beta_12
_atom_site_aniso_beta_13
_atom_site_aniso_beta_23
Sb1 Sb5+ 0.0040(1) 0.0040(1) 0.00031(1) 0.002 0 0
K1 K1+ 0.0313(7) 0.0313(7) 0.00085(3) 0.0157 0 0
P1 P5+ 0.0096(3) 0.0096(3) 0.00029(1) 0.0048 0 0
O1 O2- 0.026(1) 0.026(1) 0.00029(5) 0.013 0 0
O2 O2- 0.0098(7) 0.0111(7) 0.00053(3) 0.0055(6) -.00005(9) -.00055(9)
#End of TTdata_61788-ICSD