
#(C) 2017 by FIZ Karlsruhe - Leibniz Institute for Information Infrastructure, and the U.S. Secretary of
#Commerce on behalf of the United States.  All rights reserved.
data_618246-ICSD
_database_code_ICSD 618246
_audit_creation_date 2012-02-01
_chemical_name_systematic 'Manganese carbide (5/2)'
_chemical_formula_structural 'Mn5 C2'
_chemical_formula_sum 'C2 Mn5'
_chemical_name_structure_type Pd5B2
_exptl_crystal_density_diffrn 7.35
_publ_section_title 'Etude structurale des carbures de manganese'
_publ_section_comment 'Cell and Type only determined'
loop_
_citation_id
_citation_journal_full
_citation_year
_citation_journal_volume
_citation_page_first
_citation_page_last
_citation_journal_id_ASTM
primary 'Annales de Chimie (Paris) (Vol=Year)' 1967 2 353 366 ANCPAC
loop_
_publ_author_name
'Bouchaud, J.P.'
_cell_length_a 11.673
_cell_length_b 4.583
_cell_length_c 5.094
_cell_angle_alpha 90.
_cell_angle_beta 97.68
_cell_angle_gamma 90.
_cell_volume 270.07
_cell_formula_units_Z 4
_symmetry_space_group_name_H-M 'C 1 2/c 1'
_symmetry_Int_Tables_number 15
loop_
_symmetry_equiv_pos_site_id
_symmetry_equiv_pos_as_xyz
1 'x, -y, z+1/2'
2 '-x, -y, -z'
3 '-x, y, -z+1/2'
4 'x, y, z'
5 'x+1/2, -y+1/2, z+1/2'
6 '-x+1/2, -y+1/2, -z'
7 '-x+1/2, y+1/2, -z+1/2'
8 'x+1/2, y+1/2, z'
loop_
_atom_type_symbol
_atom_type_oxidation_number
Mn0+ 0
C0+ 0
loop_
_atom_site_label
_atom_site_type_symbol
_atom_site_symmetry_multiplicity
_atom_site_Wyckoff_symbol
_atom_site_fract_x
_atom_site_fract_y
_atom_site_fract_z
_atom_site_B_iso_or_equiv
_atom_site_occupancy
_atom_site_attached_hydrogens
Mn1 Mn0+ 8 f 0.099 0.093 0.436 . 1. 0
Mn2 Mn0+ 8 f 0.222 0.596 0.3 . 1. 0
Mn3 Mn0+ 4 e 0 0.591 0.25 . 1. 0
C1 C0+ 8 f 0.112 0.304 0.074 . 1. 0
#End of TTdata_618246-ICSD