
#(C) 2017 by FIZ Karlsruhe - Leibniz Institute for Information Infrastructure, and the U.S. Secretary of
#Commerce on behalf of the United States.  All rights reserved.
data_618924-ICSD
_database_code_ICSD 618924
_audit_creation_date 2008-07-07
_audit_update_record 2017-08-01
_chemical_name_systematic 'Titanium carbide (8/5)'
_chemical_formula_structural 'Ti8 C5'
_chemical_formula_sum 'C5 Ti8'
_chemical_name_structure_type Ti8C5
_exptl_crystal_density_diffrn 4.54
_publ_section_title 'Ordered phase of the Ti-C system'
loop_
_citation_id
_citation_journal_full
_citation_year
_citation_journal_volume
_citation_page_first
_citation_page_last
_citation_journal_id_ASTM
primary

;
Dopovidi Akademii Nauk Ukrains'koi RSR, Seriya A: Fiziko-Matematichni Ta
Tekhnichni Nauki
; 1978 40 1034 1036 DNUNDU
loop_
_publ_author_name
'Arbuzov, M.P.'
'Golub, S.Ya.'
'Khaenko, B.V.'
_cell_length_a 6.121
_cell_length_b 6.121
_cell_length_c 14.993
_cell_angle_alpha 90.
_cell_angle_beta 90.
_cell_angle_gamma 120.
_cell_volume 486.48
_cell_formula_units_Z 3
_symmetry_space_group_name_H-M 'R 3 m H'
_symmetry_Int_Tables_number 160
_refine_ls_R_factor_all 0.08
loop_
_symmetry_equiv_pos_site_id
_symmetry_equiv_pos_as_xyz
1 '-x+y, y, z'
2 'x, x-y, z'
3 '-y, -x, z'
4 '-x+y, -x, z'
5 '-y, x-y, z'
6 'x, y, z'
7 '-x+y+2/3, y+1/3, z+1/3'
8 'x+2/3, x-y+1/3, z+1/3'
9 '-y+2/3, -x+1/3, z+1/3'
10 '-x+y+2/3, -x+1/3, z+1/3'
11 '-y+2/3, x-y+1/3, z+1/3'
12 'x+2/3, y+1/3, z+1/3'
13 '-x+y+1/3, y+2/3, z+2/3'
14 'x+1/3, x-y+2/3, z+2/3'
15 '-y+1/3, -x+2/3, z+2/3'
16 '-x+y+1/3, -x+2/3, z+2/3'
17 '-y+1/3, x-y+2/3, z+2/3'
18 'x+1/3, y+2/3, z+2/3'
loop_
_atom_type_symbol
_atom_type_oxidation_number
C0+ 0
Ti0+ 0
loop_
_atom_site_label
_atom_site_type_symbol
_atom_site_symmetry_multiplicity
_atom_site_Wyckoff_symbol
_atom_site_fract_x
_atom_site_fract_y
_atom_site_fract_z
_atom_site_B_iso_or_equiv
_atom_site_occupancy
_atom_site_attached_hydrogens
C1 C0+ 9 b 0.1667 0.3333 0.8333 . 1. 0
C2 C0+ 3 a 0 0 0 . 1. 0
C3 C0+ 3 a 0 0 0.5 . 1. 0
Ti1 Ti0+ 9 b 0.1667 0.3333 .09 . 1. 0
Ti2 Ti0+ 9 b 0.8333 0.6667 .917 . 1. 0
Ti3 Ti0+ 3 a 0 0 .248 . 1. 0
Ti4 Ti0+ 3 a 0 0 .759 . 1. 0
#End of TTdata_618924-ICSD