
#(C) 2017 by FIZ Karlsruhe - Leibniz Institute for Information Infrastructure.  All rights reserved.
data_62035-ICSD
_database_code_ICSD 62035
_audit_creation_date 1988-02-22
_audit_update_record 2010-08-01
_chemical_name_systematic 'Trisodium hexachlorochromate(III)'
_chemical_formula_structural 'Na3 (Cr Cl6)'
_chemical_formula_sum 'Cl6 Cr1 Na3'
_chemical_name_structure_type Na3CrCl6
_exptl_crystal_density_diffrn 2.29
_publ_section_title 'Ueber Alkali-Hexachlorochromate(III): Na3 Cr Cl6'
loop_
_citation_id
_citation_journal_full
_citation_year
_citation_journal_volume
_citation_page_first
_citation_page_last
_citation_journal_id_ASTM
primary 'Zeitschrift fuer Anorganische und Allgemeine Chemie (1950) (DE)' 1987
548 141 150 ZAACAB
loop_
_publ_author_name
'Friedrich, G.'
'Fink, H.'
'Seifert, H.J.'
_cell_length_a 6.820(3)
_cell_length_b 6.820(3)
_cell_length_c 12.034(5)
_cell_angle_alpha 90.
_cell_angle_beta 90.
_cell_angle_gamma 120.
_cell_volume 484.74
_cell_formula_units_Z 2
_symmetry_space_group_name_H-M 'P -3 1 c'
_symmetry_Int_Tables_number 163
_refine_ls_R_factor_all 0.049
loop_
_symmetry_equiv_pos_site_id
_symmetry_equiv_pos_as_xyz
1 '-x+y, y, -z+1/2'
2 'x, x-y, -z+1/2'
3 '-y, -x, -z+1/2'
4 'x-y, x, -z'
5 'y, -x+y, -z'
6 '-x, -y, -z'
7 'x-y, -y, z+1/2'
8 '-x, -x+y, z+1/2'
9 'y, x, z+1/2'
10 '-x+y, -x, z'
11 '-y, x-y, z'
12 'x, y, z'
loop_
_atom_type_symbol
_atom_type_oxidation_number
Cl1- -1
Cr3+ 3
Na1+ 1
loop_
_atom_site_label
_atom_site_type_symbol
_atom_site_symmetry_multiplicity
_atom_site_Wyckoff_symbol
_atom_site_fract_x
_atom_site_fract_y
_atom_site_fract_z
_atom_site_B_iso_or_equiv
_atom_site_occupancy
_atom_site_attached_hydrogens
Cl1 Cl1- 12 i 0.3225(2) -.0595(2) 0.1349(1) 2.35(8) 1. 0
Cr1 Cr3+ 2 c 0.3333 0.6667 0.25 1.04(7) 1. 0
Na1 Na1+ 4 f 0.3333 0.6667 -.0451(2) 1.89(9) 1. 0
Na2 Na1+ 2 a 0 0 0.25 1.47(2) 1. 0
#End of TTdata_62035-ICSD