
#(C) 2017 by FIZ Karlsruhe - Leibniz Institute for Information Infrastructure.  All rights reserved.
data_62048-ICSD
_database_code_ICSD 62048
_audit_creation_date 1988-02-22
_audit_update_record 2007-08-01
_chemical_name_systematic 'Tungsten bromide'
_chemical_formula_structural 'W Br6'
_chemical_formula_sum 'Br6 W1'
_chemical_name_structure_type WCl6
_exptl_crystal_density_diffrn 5.32
_publ_section_title Wolframhexabromid
loop_
_citation_id
_citation_journal_full
_citation_year
_citation_journal_volume
_citation_page_first
_citation_page_last
_citation_journal_id_ASTM
primary 'Acta Crystallographica, Section C: Crystal Structure Communications'
1987 43 1425 1426 ACSCEE
loop_
_publ_author_name
'Willing, W.'
'Mueller, U.'
_cell_length_a 6.394(2)
_cell_length_b 6.394(2)
_cell_length_c 17.53(1)
_cell_angle_alpha 90.
_cell_angle_beta 90.
_cell_angle_gamma 120.
_cell_volume 620.67
_cell_formula_units_Z 3
_symmetry_space_group_name_H-M 'R -3 H'
_symmetry_Int_Tables_number 148
_refine_ls_R_factor_all 0.142
loop_
_symmetry_equiv_pos_site_id
_symmetry_equiv_pos_as_xyz
1 'x-y, x, -z'
2 'y, -x+y, -z'
3 '-x, -y, -z'
4 '-x+y, -x, z'
5 '-y, x-y, z'
6 'x, y, z'
7 'x-y+2/3, x+1/3, -z+1/3'
8 'y+2/3, -x+y+1/3, -z+1/3'
9 '-x+2/3, -y+1/3, -z+1/3'
10 '-x+y+2/3, -x+1/3, z+1/3'
11 '-y+2/3, x-y+1/3, z+1/3'
12 'x+2/3, y+1/3, z+1/3'
13 'x-y+1/3, x+2/3, -z+2/3'
14 'y+1/3, -x+y+2/3, -z+2/3'
15 '-x+1/3, -y+2/3, -z+2/3'
16 '-x+y+1/3, -x+2/3, z+2/3'
17 '-y+1/3, x-y+2/3, z+2/3'
18 'x+1/3, y+2/3, z+2/3'
loop_
_atom_type_symbol
_atom_type_oxidation_number
W6+ 6
Br1- -1
loop_
_atom_site_label
_atom_site_type_symbol
_atom_site_symmetry_multiplicity
_atom_site_Wyckoff_symbol
_atom_site_fract_x
_atom_site_fract_y
_atom_site_fract_z
_atom_site_B_iso_or_equiv
_atom_site_occupancy
_atom_site_attached_hydrogens
W1 W6+ 3 a 0 0 0 . 1. 0
Br1 Br1- 18 f 0.3157(4) 0.0049(5) -.0808(1) . 1. 0
loop_
_atom_site_aniso_label
_atom_site_aniso_type_symbol
_atom_site_aniso_U_11
_atom_site_aniso_U_22
_atom_site_aniso_U_33
_atom_site_aniso_U_12
_atom_site_aniso_U_13
_atom_site_aniso_U_23
W1 W6+ 0.0154(10) 0.0154(10) 0.018(1) 0.0077(5) 0 0
Br1 Br1- 0.033(2) 0.043(2) 0.030(1) 0.022(1) 0 0
#End of TTdata_62048-ICSD