
#(C) 2017 by FIZ Karlsruhe - Leibniz Institute for Information Infrastructure.  All rights reserved.
data_62096-ICSD
_database_code_ICSD 62096
_audit_creation_date 1988-02-22
_audit_update_record 2011-02-01
_chemical_name_systematic
'Dibarium tetramanganese(III) tetramanganese(IV) oxide'
_chemical_formula_structural 'Ba2 Mn8 O16'
_chemical_formula_sum 'Ba2 Mn8 O16'
_chemical_name_structure_type Ba2Mn8O16
_chemical_name_mineral Hollandite
_exptl_crystal_density_diffrn 5.77
_publ_section_title 'The crystal structure of hollandite'
loop_
_citation_id
_citation_journal_full
_citation_year
_citation_journal_volume
_citation_page_first
_citation_page_last
_citation_journal_id_ASTM
primary 'Mineralogical Journal (Japan)' 1986 13 119 129 MJTOAS
loop_
_publ_author_name
'Miura, H.'
_cell_length_a 10.006(3)
_cell_length_b 2.866(1)
_cell_length_c 9.746(2)
_cell_angle_alpha 90.
_cell_angle_beta 91.17(3)
_cell_angle_gamma 90.
_cell_volume 279.43
_cell_formula_units_Z 1
_symmetry_space_group_name_H-M 'I 1 2/m 1'
_symmetry_Int_Tables_number 12
_refine_ls_R_factor_all 0.05
loop_
_symmetry_equiv_pos_site_id
_symmetry_equiv_pos_as_xyz
1 'x, -y, z'
2 '-x, -y, -z'
3 '-x, y, -z'
4 'x, y, z'
5 'x+1/2, -y+1/2, z+1/2'
6 '-x+1/2, -y+1/2, -z+1/2'
7 '-x+1/2, y+1/2, -z+1/2'
8 'x+1/2, y+1/2, z+1/2'
loop_
_atom_type_symbol
_atom_type_oxidation_number
Ba2+ 2
Mn3+ 3.5
O2- -2
loop_
_atom_site_label
_atom_site_type_symbol
_atom_site_symmetry_multiplicity
_atom_site_Wyckoff_symbol
_atom_site_fract_x
_atom_site_fract_y
_atom_site_fract_z
_atom_site_B_iso_or_equiv
_atom_site_occupancy
_atom_site_attached_hydrogens
Ba1 Ba2+ 2 b 0 0.5 0 . 1. 0
Mn1 Mn3+ 4 i 0.16405(6) 0 0.34692(6) . 1. 0
Mn2 Mn3+ 4 i 0.35185(6) 0 0.83170(6) . 1. 0
O1 O2- 4 i 0.2056(3) 0 0.1495(4) . 1. 0
O2 O2- 4 i 0.1580(3) 0 0.8019(3) . 1. 0
O3 O2- 4 i 0.1548(3) 0 0.5431(3) . 1. 0
O4 O2- 4 i 0.5418(3) 0 0.8231(4) . 1. 0
loop_
_atom_site_aniso_label
_atom_site_aniso_type_symbol
_atom_site_aniso_beta_11
_atom_site_aniso_beta_22
_atom_site_aniso_beta_33
_atom_site_aniso_beta_12
_atom_site_aniso_beta_13
_atom_site_aniso_beta_23
Ba1 Ba2+ 0.00257(7) 0.0701(14) 0.00279(8) 0 0.00027(5) 0
Mn1 Mn3+ 0.00122(4) 0.0102(4) 0.00143(4) 0 0.00041(3) 0
Mn2 Mn3+ 0.00101(4) 0.0098(4) 0.00167(4) 0 0.00012(3) 0
O1 O2- 0.0015(2) 0.0164(22) 0.0035(3) 0 0.0002(2) 0
O2 O2- 0.0019(2) 0.0164(23) 0.0026(2) 0 0.0003(2) 0
O3 O2- 0.0028(2) 0.0148(23) 0.0023(2) 0 0.0003(2) 0
O4 O2- 0.0015(2) 0.0158(23) 0.0036(3) 0 0.0003(2) 0
#End of TTdata_62096-ICSD