
#(C) 2017 by FIZ Karlsruhe - Leibniz Institute for Information Infrastructure.  All rights reserved.
data_62107-ICSD
_database_code_ICSD 62107
_audit_creation_date 1988-02-22
_audit_update_record 2014-08-01
_chemical_name_systematic 'Thallium(I) tetrachloroaurate(III)'
_chemical_formula_structural 'Tl Au Cl4'
_chemical_formula_sum 'Au1 Cl4 Tl1'
_chemical_name_structure_type TlAuCl4
_exptl_crystal_density_diffrn 5.32
_cell_measurement_temperature 293.
_publ_section_title 'Thallium(I) Tetrachloroaurate(III)'
loop_
_citation_id
_citation_journal_full
_citation_year
_citation_journal_volume
_citation_page_first
_citation_page_last
_citation_journal_id_ASTM
primary 'Acta Crystallographica, Section C: Crystal Structure Communications'
1987 43 1674 1675 ACSCEE
loop_
_publ_author_name
'Jones, P.G.'
'Schelbach, R.'
'Schwarzmann, E.'
_cell_length_a 12.298(3)
_cell_length_b 5.825(2)
_cell_length_c 9.681(3)
_cell_angle_alpha 90.
_cell_angle_beta 102.09(2)
_cell_angle_gamma 90.
_cell_volume 678.12
_cell_formula_units_Z 4
_symmetry_space_group_name_H-M 'C 1 2/c 1'
_symmetry_Int_Tables_number 15
_refine_ls_R_factor_all 0.067
loop_
_symmetry_equiv_pos_site_id
_symmetry_equiv_pos_as_xyz
1 'x, -y, z+1/2'
2 '-x, -y, -z'
3 '-x, y, -z+1/2'
4 'x, y, z'
5 'x+1/2, -y+1/2, z+1/2'
6 '-x+1/2, -y+1/2, -z'
7 '-x+1/2, y+1/2, -z+1/2'
8 'x+1/2, y+1/2, z'
loop_
_atom_type_symbol
_atom_type_oxidation_number
Tl1+ 1
Au3+ 3
Cl1- -1
loop_
_atom_site_label
_atom_site_type_symbol
_atom_site_symmetry_multiplicity
_atom_site_Wyckoff_symbol
_atom_site_fract_x
_atom_site_fract_y
_atom_site_fract_z
_atom_site_B_iso_or_equiv
_atom_site_occupancy
_atom_site_attached_hydrogens
Tl1 Tl1+ 4 e 0 0.2260(2) 0.25 . 1. 0
Au1 Au3+ 4 c 0.25 0.75 0.5 . 1. 0
Cl1 Cl1- 8 f 0.0620(3) 0.7336(7) 0.4300(4) . 1. 0
Cl2 Cl1- 8 f 0.2694(4) 0.4517(8) 0.3550(5) . 1. 0
loop_
_atom_site_aniso_label
_atom_site_aniso_type_symbol
_atom_site_aniso_U_11
_atom_site_aniso_U_22
_atom_site_aniso_U_33
_atom_site_aniso_U_12
_atom_site_aniso_U_13
_atom_site_aniso_U_23
Tl1 Tl1+ 0.066(1) 0.043(1) 0.052(1) 0 0.022(1) 0
Au1 Au3+ 0.041(1) 0.025(1) 0.022(1) 0.002(1) 0.008(1) 0.003(1)
Cl1 Cl1- 0.046(2) 0.049(2) 0.039(2) -.002(2) 0.007(2) -.002(2)
Cl2 Cl1- 0.062(3) 0.047(3) 0.044(3) 0.000(2) 0.016(2) -.014(2)
#End of TTdata_62107-ICSD