
#(C) 2017 by FIZ Karlsruhe - Leibniz Institute for Information Infrastructure.  All rights reserved.
data_62156-ICSD
_database_code_ICSD 62156
_audit_creation_date 1988-02-22
_audit_update_record 2012-08-01
_chemical_name_systematic 'Strontium octathiohexamolybdate'
_chemical_formula_structural 'Sr (Mo6 S8)'
_chemical_formula_sum 'Mo6 S8 Sr1'
_chemical_name_structure_type Chevrel-PbMo6S8
_exptl_crystal_density_diffrn 5.39
_publ_section_title

;
Structural phase transitions in Chevrel phases containing divalent metal
cations. I. Structure refinement of rhombohedral M Mo6 S8 (M= Eu, Sr, Ba) at
room temperature
;
loop_
_citation_id
_citation_journal_full
_citation_year
_citation_journal_volume
_citation_page_first
_citation_page_last
_citation_journal_id_ASTM
primary 'Acta Crystallographica, Section C: Crystal Structure Communications'
1987 43 1655 1659 ACSCEE
loop_
_publ_author_name
'Kubel, F.'
'Yvon, K.'
_cell_length_a 6.5702(3)
_cell_length_b 6.5702(3)
_cell_length_c 6.5702(3)
_cell_angle_alpha 89.003(5)
_cell_angle_beta 89.003(5)
_cell_angle_gamma 89.003(5)
_cell_volume 283.49
_cell_formula_units_Z 1
_symmetry_space_group_name_H-M 'R -3 R'
_symmetry_Int_Tables_number 148
_refine_ls_R_factor_all 0.035
loop_
_symmetry_equiv_pos_site_id
_symmetry_equiv_pos_as_xyz
1 '-z, -x, -y'
2 '-y, -z, -x'
3 '-x, -y, -z'
4 'z, x, y'
5 'y, z, x'
6 'x, y, z'
loop_
_atom_type_symbol
_atom_type_oxidation_number
Sr0+ 0
Mo0+ 0
S0+ 0
loop_
_atom_site_label
_atom_site_type_symbol
_atom_site_symmetry_multiplicity
_atom_site_Wyckoff_symbol
_atom_site_fract_x
_atom_site_fract_y
_atom_site_fract_z
_atom_site_B_iso_or_equiv
_atom_site_occupancy
_atom_site_attached_hydrogens
Sr1 Sr0+ 1 a 0 0 0 . 1. 0
Mo1 Mo0+ 6 f 0.22964(4) 0.41819(3) 0.56293(4) . 1. 0
S1 S0+ 6 f 0.3829(1) 0.1251(1) 0.7416(1) . 1. 0
S2 S0+ 2 c 0.2454(1) 0.2454(1) 0.2454(1) . 1. 0
loop_
_atom_site_aniso_label
_atom_site_aniso_type_symbol
_atom_site_aniso_U_11
_atom_site_aniso_U_22
_atom_site_aniso_U_33
_atom_site_aniso_U_12
_atom_site_aniso_U_13
_atom_site_aniso_U_23
Sr1 Sr0+ 0.0135(2) 0.0135(2) 0.0135(2) -.0034(1) -.0034(1) -.0034(1)
Mo1 Mo0+ 0.0060(1) 0.0055(1) 0.0056(1) 0.00012(8) -.00015(8) -.00001(8)
S1 S0+ 0.0096(3) 0.0066(3) 0.0092(3) -.0008(3) 0.0009(3) 0.0010(2)
S2 S0+ 0.0106(2) 0.0106(2) 0.0106(2) -.0026(2) -.0026(2) -.0026(2)
#End of TTdata_62156-ICSD