
#(C) 2017 by FIZ Karlsruhe - Leibniz Institute for Information Infrastructure.  All rights reserved.
data_62308-ICSD
_database_code_ICSD 62308
_audit_creation_date 1988-07-15
_audit_update_record 2014-08-01
_chemical_name_systematic 'Scandium trialuminium carbide'
_chemical_formula_structural 'Sc Al3 C3'
_chemical_formula_sum 'C3 Al3 Sc1'
_chemical_name_structure_type Al3ScC3
_exptl_crystal_density_diffrn 3.29
_publ_section_title 'Crystal structure of the compound Sc Al3 C3'
loop_
_citation_id
_citation_journal_full
_citation_year
_citation_journal_volume
_citation_page_first
_citation_page_last
_citation_journal_id_ASTM
primary Kristallografiya 1986 31 791 792 KRISAJ
loop_
_publ_author_name
'Tsokol', A.O.'
'Bodak, O.I.'
'Marusin, E.P.'
'Baivel'man, M.G.'
_cell_length_a 3.355(1)
_cell_length_b 3.355(1)
_cell_length_c 16.776(3)
_cell_angle_alpha 90.
_cell_angle_beta 90.
_cell_angle_gamma 120.
_cell_volume 163.53
_cell_formula_units_Z 2
_symmetry_space_group_name_H-M 'P 63/m m c'
_symmetry_Int_Tables_number 194
_refine_ls_R_factor_all 0.032
loop_
_symmetry_equiv_pos_site_id
_symmetry_equiv_pos_as_xyz
1 'x, x-y, -z+1/2'
2 '-x+y, y, -z+1/2'
3 '-y, -x, -z+1/2'
4 '-x+y, -x, -z+1/2'
5 '-y, x-y, -z+1/2'
6 'x, y, -z+1/2'
7 '-x, -x+y, z+1/2'
8 'x-y, -y, z+1/2'
9 'y, x, z+1/2'
10 'x-y, x, z+1/2'
11 'y, -x+y, z+1/2'
12 '-x, -y, z+1/2'
13 '-x, -x+y, -z'
14 'x-y, -y, -z'
15 'y, x, -z'
16 'x-y, x, -z'
17 'y, -x+y, -z'
18 '-x, -y, -z'
19 'x, x-y, z'
20 '-x+y, y, z'
21 '-y, -x, z'
22 '-x+y, -x, z'
23 '-y, x-y, z'
24 'x, y, z'
loop_
_atom_type_symbol
_atom_type_oxidation_number
Sc3+ 3
Al3+ 3
C4- -4
loop_
_atom_site_label
_atom_site_type_symbol
_atom_site_symmetry_multiplicity
_atom_site_Wyckoff_symbol
_atom_site_fract_x
_atom_site_fract_y
_atom_site_fract_z
_atom_site_B_iso_or_equiv
_atom_site_occupancy
_atom_site_attached_hydrogens
Sc1 Sc3+ 2 a 0 0 0 . 1. 0
Al1 Al3+ 4 f 0.3333 0.6667 0.1293(2) . 1. 0
Al2 Al3+ 2 d 0.3333 0.6667 0.75 . 1. 0
C1 C4- 4 f 0.3333 0.6667 0.5876(4) . 1. 0
C2 C4- 2 c 0.3333 0.6667 0.25 . 1. 0
loop_
_atom_site_aniso_label
_atom_site_aniso_type_symbol
_atom_site_aniso_B_11
_atom_site_aniso_B_22
_atom_site_aniso_B_33
_atom_site_aniso_B_12
_atom_site_aniso_B_13
_atom_site_aniso_B_23
Sc1 Sc3+ 0.59(5) 0.59(5) 0.50(7) 0.3 0 0
Al1 Al3+ 0.51(6) 0.51(6) 0.71(9) 0.26 0 0
Al2 Al3+ 0.44(9) 0.44(9) 2.9(2) 0.22 0 0
C1 C4- 0.1(1) 0.1(1) 1.4(3) 0.05 0 0
C2 C4- 0.4(2) 0.4(2) 0.1(3) 0.2 0 0
#End of TTdata_62308-ICSD