
#(C) 2017 by FIZ Karlsruhe - Leibniz Institute for Information Infrastructure, and the U.S. Secretary of
#Commerce on behalf of the United States.  All rights reserved.
data_623231-ICSD
_database_code_ICSD 623231
_audit_creation_date 2013-02-01
_chemical_name_systematic 'Yttrium gallium cobalt (1/1/1)'
_chemical_formula_structural 'Y Ga Co'
_chemical_formula_sum 'Co1 Ga1 Y1'
_chemical_name_structure_type CoGdGa
_exptl_crystal_density_diffrn 6.64
_publ_section_title
'The crystal structure of R Ga Co (R = Pr, Nd, Sm, Gd, Tb, Dy, Ho, Er, Y)'
_publ_section_comment 'Cell and Type only determined'
loop_
_citation_id
_citation_journal_full
_citation_year
_citation_journal_volume
_citation_page_first
_citation_page_last
_citation_journal_id_ASTM
primary

;
Dopovidi Akademii Nauk Ukrains'koi RSR, Seriya B: Geologichni, Khimichni ta
Biologichni Nauki
; 1982 1982 60 62 DANND6
loop_
_publ_author_name
'Sichevich, O.M.'
'Gladyshevskii, R.E.'
'Hrin', Yu.N.'
'Yarmolyuk, Ya.P.'
_cell_length_a 7.042(5)
_cell_length_b 4.367(4)
_cell_length_c 7.078(6)
_cell_angle_alpha 90.
_cell_angle_beta 90.
_cell_angle_gamma 90.
_cell_volume 217.67
_cell_formula_units_Z 4
_symmetry_space_group_name_H-M 'P n m a'
_symmetry_Int_Tables_number 62
loop_
_symmetry_equiv_pos_site_id
_symmetry_equiv_pos_as_xyz
1 'x+1/2, y, -z+1/2'
2 'x, -y+1/2, z'
3 '-x+1/2, y+1/2, z+1/2'
4 '-x, -y, -z'
5 '-x+1/2, -y, z+1/2'
6 '-x, y+1/2, -z'
7 'x+1/2, -y+1/2, -z+1/2'
8 'x, y, z'
loop_
_atom_type_symbol
_atom_type_oxidation_number
Co0+ 0
Y0+ 0
Ga0+ 0
loop_
_atom_site_label
_atom_site_type_symbol
_atom_site_symmetry_multiplicity
_atom_site_Wyckoff_symbol
_atom_site_fract_x
_atom_site_fract_y
_atom_site_fract_z
_atom_site_B_iso_or_equiv
_atom_site_occupancy
_atom_site_attached_hydrogens
Co1 Co0+ 4 c 0.803 0.25 0.608 . 1. 0
Y1 Y0+ 4 c 0.014 0.25 0.183 . 1. 0
Ga1 Ga0+ 4 c 0.169 0.25 0.576 . 1. 0
#End of TTdata_623231-ICSD