
#(C) 2017 by FIZ Karlsruhe - Leibniz Institute for Information Infrastructure, and the U.S. Secretary of
#Commerce on behalf of the United States.  All rights reserved.
data_623948-ICSD
_database_code_ICSD 623948
_audit_creation_date 2013-02-01
_chemical_name_systematic 'Yttrium cobalt indide (2/1/8)'
_chemical_formula_structural 'Y2 Co In8'
_chemical_formula_sum 'Co1 In8 Y2'
_chemical_name_structure_type CoGa8Ho2
_exptl_crystal_density_diffrn 7.63
_publ_section_title

;
Crystal structures of compounds R Co In5 (R = Ce, Pr, Nd, Sm, Gd, Tb, Dy, Ho,
Y) and R2 Co In8 (R = Ce, Pr, Nd, Sm, Gd, Dy, Ho, Er, Tm, Y)
;
_publ_section_comment 'Cell and Type only determined'
loop_
_citation_id
_citation_journal_full
_citation_year
_citation_journal_volume
_citation_page_first
_citation_page_last
_citation_journal_id_ASTM
primary 'Russian Metallurgy' 1989 1989 213 215 RMLYAQ
loop_
_publ_author_name
'Kalychak, Ya.M.'
'Zaremba, V.I.'
'Baranyak, V.M.'
'Bruskov, V.A.'
'Zavalii, P.Yu.'
_cell_length_a 4.574(2)
_cell_length_b 4.574(2)
_cell_length_c 12.013(4)
_cell_angle_alpha 90.
_cell_angle_beta 90.
_cell_angle_gamma 90.
_cell_volume 251.33
_cell_formula_units_Z 1
_symmetry_space_group_name_H-M 'P 4/m m m'
_symmetry_Int_Tables_number 123
loop_
_symmetry_equiv_pos_site_id
_symmetry_equiv_pos_as_xyz
1 'y, x, -z'
2 '-y, -x, -z'
3 '-y, x, -z'
4 'y, -x, -z'
5 '-x, y, -z'
6 'x, -y, -z'
7 'x, y, -z'
8 '-x, -y, -z'
9 '-y, -x, z'
10 'y, x, z'
11 'y, -x, z'
12 '-y, x, z'
13 'x, -y, z'
14 '-x, y, z'
15 '-x, -y, z'
16 'x, y, z'
loop_
_atom_type_symbol
_atom_type_oxidation_number
Y0+ 0
Co0+ 0
In0+ 0
loop_
_atom_site_label
_atom_site_type_symbol
_atom_site_symmetry_multiplicity
_atom_site_Wyckoff_symbol
_atom_site_fract_x
_atom_site_fract_y
_atom_site_fract_z
_atom_site_B_iso_or_equiv
_atom_site_occupancy
_atom_site_attached_hydrogens
Y1 Y0+ 2 g 0 0 0.309 . 1. 0
Co1 Co0+ 1 a 0 0 0 . 1. 0
In1 In0+ 4 i 0 0.5 0.119 . 1. 0
In2 In0+ 2 e 0 0.5 0.5 . 1. 0
In3 In0+ 2 h 0.5 0.5 0.293 . 1. 0
#End of TTdata_623948-ICSD