
#(C) 2017 by FIZ Karlsruhe - Leibniz Institute for Information Infrastructure, and the U.S. Secretary of
#Commerce on behalf of the United States.  All rights reserved.
data_624659-ICSD
_database_code_ICSD 624659
_audit_creation_date 2013-02-01
_chemical_name_systematic 'Vanadium cobalt phosphide (1/1/1)'
_chemical_formula_structural 'V Co P'
_chemical_formula_sum 'Co1 P1 V1'
_chemical_name_structure_type TiNiSi-MgSrSi
_exptl_crystal_density_diffrn 6.55
_publ_section_title 'Interaction of phosphorus with vanadium and cobalt'
_publ_section_comment 'Cell and Type only determined'
loop_
_citation_id
_citation_journal_full
_citation_year
_citation_journal_volume
_citation_page_first
_citation_page_last
_citation_journal_id_ASTM
primary 'Soviet Progress in Chemistry' 1979 45 43 45 SPCHBV
loop_
_publ_author_name
'Palfii, Ya.F.'
'Kuz'ma, Yu.B.'
'Nadoba, A.A.'
_cell_length_a 5.98
_cell_length_b 3.5
_cell_length_c 6.82
_cell_angle_alpha 90.
_cell_angle_beta 90.
_cell_angle_gamma 90.
_cell_volume 142.74
_cell_formula_units_Z 4
_symmetry_space_group_name_H-M 'P n m a'
_symmetry_Int_Tables_number 62
loop_
_symmetry_equiv_pos_site_id
_symmetry_equiv_pos_as_xyz
1 'x+1/2, y, -z+1/2'
2 'x, -y+1/2, z'
3 '-x+1/2, y+1/2, z+1/2'
4 '-x, -y, -z'
5 '-x+1/2, -y, z+1/2'
6 '-x, y+1/2, -z'
7 'x+1/2, -y+1/2, -z+1/2'
8 'x, y, z'
loop_
_atom_type_symbol
_atom_type_oxidation_number
Co0+ 0
V0+ 0
P0+ 0
loop_
_atom_site_label
_atom_site_type_symbol
_atom_site_symmetry_multiplicity
_atom_site_Wyckoff_symbol
_atom_site_fract_x
_atom_site_fract_y
_atom_site_fract_z
_atom_site_B_iso_or_equiv
_atom_site_occupancy
_atom_site_attached_hydrogens
Co1 Co0+ 4 c 0.142 0.25 0.436 . 1. 0
V1 V0+ 4 c 0.028 0.25 0.831 . 1. 0
P1 P0+ 4 c 0.768 0.25 0.374 . 1. 0
#End of TTdata_624659-ICSD