
#(C) 2017 by FIZ Karlsruhe - Leibniz Institute for Information Infrastructure, and the U.S. Secretary of
#Commerce on behalf of the United States.  All rights reserved.
data_625017-ICSD
_database_code_ICSD 625017
_audit_creation_date 2013-02-01
_chemical_name_systematic 'Cobalt silicide (2/1)'
_chemical_formula_structural 'Co2 Si'
_chemical_formula_sum 'Co2 Si1'
_chemical_name_structure_type Co2Si
_exptl_crystal_density_diffrn 7.46
_publ_section_title

;
Roentgenuntersuchung der Legierungen von Silicium mit Chrom, Mangan, Kobalt
und Nickel
;
_publ_section_comment 'Cell and Type only determined'
loop_
_citation_id
_citation_journal_full
_citation_year
_citation_journal_volume
_citation_page_first
_citation_page_last
_citation_journal_id_ASTM
primary 'Arkiv foer Kemi, Mineralogi och Geologi' 1933 11 1 28 AKMGAE
loop_
_publ_author_name
'Boren, B.'
_cell_length_a 4.908
_cell_length_b 3.73
_cell_length_c 7.095
_cell_angle_alpha 90.
_cell_angle_beta 90.
_cell_angle_gamma 90.
_cell_volume 129.89
_cell_formula_units_Z 4
_symmetry_space_group_name_H-M 'P n m a'
_symmetry_Int_Tables_number 62
loop_
_symmetry_equiv_pos_site_id
_symmetry_equiv_pos_as_xyz
1 'x+1/2, y, -z+1/2'
2 'x, -y+1/2, z'
3 '-x+1/2, y+1/2, z+1/2'
4 '-x, -y, -z'
5 '-x+1/2, -y, z+1/2'
6 '-x, y+1/2, -z'
7 'x+1/2, -y+1/2, -z+1/2'
8 'x, y, z'
loop_
_atom_type_symbol
_atom_type_oxidation_number
Co0+ 0
Si0+ 0
loop_
_atom_site_label
_atom_site_type_symbol
_atom_site_symmetry_multiplicity
_atom_site_Wyckoff_symbol
_atom_site_fract_x
_atom_site_fract_y
_atom_site_fract_z
_atom_site_B_iso_or_equiv
_atom_site_occupancy
_atom_site_attached_hydrogens
Co1 Co0+ 4 c 0.039 0.25 0.72 . 1. 0
Co2 Co0+ 4 c 0.171 0.25 0.064 . 1. 0
Si1 Si0+ 4 c 0.208 0.25 0.391 . 1. 0
#End of TTdata_625017-ICSD