
#(C) 2017 by FIZ Karlsruhe - Leibniz Institute for Information Infrastructure, and the U.S. Secretary of
#Commerce on behalf of the United States.  All rights reserved.
data_626510-ICSD
_database_code_ICSD 626510
_audit_creation_date 2012-02-01
_chemical_name_systematic 'Niobium phosphide (3/1)'
_chemical_formula_structural 'Nb3 P'
_chemical_formula_sum 'Nb3 P1'
_chemical_name_structure_type Ni3P
_exptl_crystal_density_diffrn 7.92
_publ_section_title
'Reaction of niobium and phosphorus with vanadium or chromium'
_publ_section_comment 'Cell and Type only determined'
loop_
_citation_id
_citation_journal_full
_citation_year
_citation_journal_volume
_citation_page_first
_citation_page_last
_citation_journal_id_ASTM
primary 'Inorganic Materials' 1988 24 505 509 INOMAF
loop_
_publ_author_name
'Lomnitskaya, Ya.F.'
'Zakharets, L.I.'
'Kondratyuk, G.D.'
_cell_length_a 10.117(3)
_cell_length_b 10.117(3)
_cell_length_c 5.078(2)
_cell_angle_alpha 90.
_cell_angle_beta 90.
_cell_angle_gamma 90.
_cell_volume 519.75
_cell_formula_units_Z 8
_symmetry_space_group_name_H-M 'I -4'
_symmetry_Int_Tables_number 82
loop_
_symmetry_equiv_pos_site_id
_symmetry_equiv_pos_as_xyz
1 '-y, x, -z'
2 'y, -x, -z'
3 '-x, -y, z'
4 'x, y, z'
5 '-y+1/2, x+1/2, -z+1/2'
6 'y+1/2, -x+1/2, -z+1/2'
7 '-x+1/2, -y+1/2, z+1/2'
8 'x+1/2, y+1/2, z+1/2'
loop_
_atom_type_symbol
_atom_type_oxidation_number
Nb0+ 0
P0+ 0
loop_
_atom_site_label
_atom_site_type_symbol
_atom_site_symmetry_multiplicity
_atom_site_Wyckoff_symbol
_atom_site_fract_x
_atom_site_fract_y
_atom_site_fract_z
_atom_site_B_iso_or_equiv
_atom_site_occupancy
_atom_site_attached_hydrogens
Nb1 Nb0+ 8 g 0.078 0.106 0.244 . 1. 0
Nb2 Nb0+ 8 g 0.361 0.031 0.998 . 1. 0
Nb3 Nb0+ 8 g 0.166 0.22 0.756 . 1. 0
P1 P0+ 8 g 0.292 0.044 0.494 . 1. 0
#End of TTdata_626510-ICSD