
#(C) 2017 by FIZ Karlsruhe - Leibniz Institute for Information Infrastructure, and the U.S. Secretary of
#Commerce on behalf of the United States.  All rights reserved.
data_626705-ICSD
_database_code_ICSD 626705
_audit_creation_date 2012-02-01
_chemical_name_systematic 'Chromium selenide (5/8)'
_chemical_formula_structural 'Cr5 Se8'
_chemical_formula_sum 'Cr5 Se8'
_chemical_name_structure_type FeTi4S8
_exptl_crystal_density_diffrn 5.85
_publ_section_title

;
New chromium chalcogenides prepared at high pressure and the crystal growth of
chromium sesquisulfide
;
_publ_section_comment 'Cell and Type only determined'
loop_
_citation_id
_citation_journal_full
_citation_year
_citation_journal_volume
_citation_page_first
_citation_page_last
_citation_journal_id_ASTM
primary 'Inorganic Chemistry' 1969 8 566 569 INOCAJ
loop_
_publ_author_name
'Sleight, A.W.'
'Bither, T.A.'
_cell_length_a 12.353(4)
_cell_length_b 7.148(4)
_cell_length_c 11.462(3)
_cell_angle_alpha 90.
_cell_angle_beta 91.06(1)
_cell_angle_gamma 90.
_cell_volume 1011.91
_cell_formula_units_Z 4
_symmetry_space_group_name_H-M 'C 1 2/m 1'
_symmetry_Int_Tables_number 12
loop_
_symmetry_equiv_pos_site_id
_symmetry_equiv_pos_as_xyz
1 '-x, y, -z'
2 '-x, -y, -z'
3 'x, -y, z'
4 'x, y, z'
5 '-x+1/2, y+1/2, -z'
6 '-x+1/2, -y+1/2, -z'
7 'x+1/2, -y+1/2, z'
8 'x+1/2, y+1/2, z'
loop_
_atom_type_symbol
_atom_type_oxidation_number
Cr3+ 3.2
Se2- -2
loop_
_atom_site_label
_atom_site_type_symbol
_atom_site_symmetry_multiplicity
_atom_site_Wyckoff_symbol
_atom_site_fract_x
_atom_site_fract_y
_atom_site_fract_z
_atom_site_B_iso_or_equiv
_atom_site_occupancy
_atom_site_attached_hydrogens
Cr1 Cr3+ 2 a 0 0 0 . 1. 0
Cr2 Cr3+ 2 d 0 0.5 0.5 . 1. 0
Cr3 Cr3+ 4 i 0 0 0.25 . 1. 0
Cr4 Cr3+ 4 i 0.5 0 0.25 . 1. 0
Cr5 Cr3+ 8 j 0.25 0.75 0.25 . 1. 0
Se1 Se2- 4 i 0.167 0 0.125 . 1. 0
Se2 Se2- 4 i 0.167 0 0.625 . 1. 0
Se3 Se2- 4 i 0.333 0 0.375 . 1. 0
Se4 Se2- 4 i 0.333 0 0.875 . 1. 0
Se5 Se2- 8 j 0.063 0.25 0.375 . 1. 0
Se6 Se2- 8 j 0.063 0.25 0.875 . 1. 0
#End of TTdata_626705-ICSD