
#(C) 2017 by FIZ Karlsruhe - Leibniz Institute for Information Infrastructure, and the U.S. Secretary of
#Commerce on behalf of the United States.  All rights reserved.
data_628465-ICSD
_database_code_ICSD 628465
_audit_creation_date 2012-02-01
_chemical_name_systematic 'Copper thioniobate (1/4/2)'
_chemical_formula_structural 'Cu Nb2 S4'
_chemical_formula_sum 'Cu1 Nb2 S4'
_chemical_name_structure_type CaFe2O4
_exptl_crystal_density_diffrn 4.12
_publ_section_title

;
Synthesis and lattice constants of transition metal thioniobates with
berthierite structure
;
_publ_section_comment 'Cell and Type only determined'
loop_
_citation_id
_citation_journal_full
_citation_year
_citation_journal_volume
_citation_page_first
_citation_page_last
_citation_journal_id_ASTM
primary 'Acta Crystallographica (1,1948-23,1967)' 1967 22 944 945 ACCRA9
loop_
_publ_author_name
'Eibschuetz, M.'
'Hermon, E.'
'Shtrikman, S.'
_cell_length_a 11.438(5)
_cell_length_b 3.524(1)
_cell_length_c 15.121(7)
_cell_angle_alpha 90.
_cell_angle_beta 90.
_cell_angle_gamma 90.
_cell_volume 609.49
_cell_formula_units_Z 4
_symmetry_space_group_name_H-M 'P n m a'
_symmetry_Int_Tables_number 62
loop_
_symmetry_equiv_pos_site_id
_symmetry_equiv_pos_as_xyz
1 'x+1/2, y, -z+1/2'
2 'x, -y+1/2, z'
3 '-x+1/2, y+1/2, z+1/2'
4 '-x, -y, -z'
5 '-x+1/2, -y, z+1/2'
6 '-x, y+1/2, -z'
7 'x+1/2, -y+1/2, -z+1/2'
8 'x, y, z'
loop_
_atom_type_symbol
_atom_type_oxidation_number
Nb3+ 3.5
Cu1+ 1
S2- -2
loop_
_atom_site_label
_atom_site_type_symbol
_atom_site_symmetry_multiplicity
_atom_site_Wyckoff_symbol
_atom_site_fract_x
_atom_site_fract_y
_atom_site_fract_z
_atom_site_B_iso_or_equiv
_atom_site_occupancy
_atom_site_attached_hydrogens
Nb1 Nb3+ 4 c 0.08 0.25 0.399 . 1. 0
Nb2 Nb3+ 4 c 0.067 0.25 0.891 . 1. 0
Cu1 Cu1+ 4 c 0.242 0.25 0.663 . 1. 0
S1 S2- 4 c 0.376 0.25 0.026 . 1. 0
S2 S2- 4 c 0.295 0.25 0.337 . 1. 0
S3 S2- 4 c 0.09 0.25 0.074 . 1. 0
S4 S2- 4 c 0.028 0.25 0.719 . 1. 0
#End of TTdata_628465-ICSD