
data_62897-ICSD
_database_code_ICSD 62897
_audit_creation_date 1988-12-19
_audit_update_record 2006-04-01
_chemical_name_systematic 'Tellurium oxide - alpha'
_chemical_formula_structural 'Te O2'
_chemical_formula_sum 'O2 Te1'
_chemical_name_structure_type Cristobalite(alpha)
_chemical_name_mineral Paratellurite
_exptl_crystal_density_diffrn 6.02
_cell_length_a 4.810(1)
_cell_length_b 4.810(1)
_cell_length_c 7.613(2)
_cell_angle_alpha 90.
_cell_angle_beta 90.
_cell_angle_gamma 90.
_cell_volume 176.14
_cell_formula_units_Z 4
_symmetry_space_group_name_H-M 'P 43 21 2'
_symmetry_Int_Tables_number 96
_refine_ls_R_factor_all 0.0063
loop_
_symmetry_equiv_pos_site_id
_symmetry_equiv_pos_as_xyz
1 'x+1/2, -y+1/2, -z+1/4'
2 '-x+1/2, y+1/2, -z+3/4'
3 '-y, -x, -z+1/2'
4 'y, x, -z'
5 'y+1/2, -x+1/2, z+1/4'
6 '-y+1/2, x+1/2, z+3/4'
7 '-x, -y, z+1/2'
8 'x, y, z'
loop_
_atom_type_symbol
_atom_type_oxidation_number
Te4+ 4
O2- -2
loop_
_atom_site_label
_atom_site_type_symbol
_atom_site_symmetry_multiplicity
_atom_site_Wyckoff_symbol
_atom_site_fract_x
_atom_site_fract_y
_atom_site_fract_z
_atom_site_B_iso_or_equiv
_atom_site_occupancy
_atom_site_attached_hydrogens
Te1 Te4+ 4 a 0.02664(1) 0.02664(1) 0 . 1. 0
O1 O2- 8 b 0.2579(2) 0.1385(1) 0.1862(1) 1.01(1) 1. 0
loop_
_atom_site_aniso_label
_atom_site_aniso_type_symbol
_atom_site_aniso_beta_11
_atom_site_aniso_beta_22
_atom_site_aniso_beta_33
_atom_site_aniso_beta_12
_atom_site_aniso_beta_13
_atom_site_aniso_beta_23
Te1 Te4+ 0.00638(2) 0.00638(2) 0.00209(1) -.00130(1) -.00008(1) 0.00008(1)
