
data_629279-ICSD
_database_code_ICSD 629279
_audit_creation_date 2008-07-07
_audit_update_record 2009-08-01
_chemical_name_systematic 'Copper tin (10/3)'
_chemical_formula_structural 'Cu10 Sn3'
_chemical_formula_sum 'Cu10 Sn3'
_chemical_name_structure_type Cu10Sn3
_exptl_crystal_density_diffrn 8.99
_publ_section_title 'Zur Kenntnis des Kristallbaues einiger Kupfer-Zinn-Phasen'
_publ_section_comment 'Cell and Type only determined'
loop_
_citation_id
_citation_journal_full
_citation_year
_citation_journal_volume
_citation_page_first
_citation_page_last
_citation_journal_id_ASTM
primary

;
Zeitschrift fuer Kristallographie, Kristallgeometrie, Kristallphysik,
Kristallchemie (-144,1977)
; 1932 83 308 317 ZEKGAX
loop_
_publ_author_name
'Carlsson, O.'
'Haegg, G.'
_cell_length_a 7.331
_cell_length_b 7.331
_cell_length_c 7.87
_cell_angle_alpha 90.
_cell_angle_beta 90.
_cell_angle_gamma 120.
_cell_volume 366.3
_cell_formula_units_Z 2
_symmetry_space_group_name_H-M 'P -3 1 m'
_symmetry_Int_Tables_number 162
loop_
_symmetry_equiv_pos_site_id
_symmetry_equiv_pos_as_xyz
1 '-x+y, y, -z'
2 'x, x-y, -z'
3 '-y, -x, -z'
4 'x-y, x, -z'
5 'y, -x+y, -z'
6 '-x, -y, -z'
7 'x-y, -y, z'
8 '-x, -x+y, z'
9 'y, x, z'
10 '-x+y, -x, z'
11 '-y, x-y, z'
12 'x, y, z'
loop_
_atom_type_symbol
_atom_type_oxidation_number
Cu0+ 0
Sn0+ 0
loop_
_atom_site_label
_atom_site_type_symbol
_atom_site_symmetry_multiplicity
_atom_site_Wyckoff_symbol
_atom_site_fract_x
_atom_site_fract_y
_atom_site_fract_z
_atom_site_B_iso_or_equiv
_atom_site_occupancy
_atom_site_attached_hydrogens
Cu1 Cu0+ 2 e 0 0 0.333 . 1. 0
Cu2 Cu0+ 6 k 0.333 0 0.889 . 1. 0
Cu3 Cu0+ 6 k 0.333 0 0.556 . 1. 0
Cu4 Cu0+ 6 k 0.333 0 0.222 . 1. 0
Sn1 Sn0+ 2 c 0.3333 0.6667 0 . 1. 0
Sn2 Sn0+ 4 h 0.3333 0.6667 0.333 . 1. 0
