
data_629337-ICSD
_database_code_ICSD 629337
_audit_creation_date 2013-02-01
_chemical_name_systematic 'Copper telluride (7/4)'
_chemical_formula_structural 'Cu7 Te4'
_chemical_formula_sum 'Cu7 Te4'
_exptl_crystal_density_diffrn 7.28
_cell_length_a 8.340(2)
_cell_length_b 8.340(2)
_cell_length_c 7.23(1)
_cell_angle_alpha 90.
_cell_angle_beta 90.
_cell_angle_gamma 120.
_cell_volume 435.51
_cell_formula_units_Z 2
_symmetry_space_group_name_H-M 'P 3 m 1'
_symmetry_Int_Tables_number 156
loop_
_symmetry_equiv_pos_site_id
_symmetry_equiv_pos_as_xyz
1 '-x+y, y, z'
2 'x, x-y, z'
3 '-y, -x, z'
4 '-x+y, -x, z'
5 '-y, x-y, z'
6 'x, y, z'
loop_
_atom_type_symbol
_atom_type_oxidation_number
Cu0+ 0
Te0+ 0
loop_
_atom_site_label
_atom_site_type_symbol
_atom_site_symmetry_multiplicity
_atom_site_Wyckoff_symbol
_atom_site_fract_x
_atom_site_fract_y
_atom_site_fract_z
_atom_site_B_iso_or_equiv
_atom_site_occupancy
_atom_site_attached_hydrogens
Cu1 Cu0+ 1 c 0.6667 0.3333 0.018 . 1. 0
Cu2 Cu0+ 1 b 0.3333 0.6667 0.168 . 1. 0
Cu3 Cu0+ 3 d 0.812 0.188 0.447 . 1. 0
Cu4 Cu0+ 3 d 0.188 0.812 0.52 . 1. 0
Cu5 Cu0+ 3 d 0.812 0.188 0.862 . 1. 0
Cu6 Cu0+ 3 d 0.188 0.812 0.923 . 1. 0
Te1 Te0+ 1 a 0 0 -.058 . 1. 0
Te2 Te0+ 3 d 0.506 0.494 0.319 . 1. 0
Te3 Te0+ 1 a 0 0 0.346 . 1. 0
Te4 Te0+ 3 d 0.506 0.494 0.715 . 1. 0
