
#(C) 2017 by FIZ Karlsruhe - Leibniz Institute for Information Infrastructure, and the U.S. Secretary of
#Commerce on behalf of the United States.  All rights reserved.
data_629378-ICSD
_database_code_ICSD 629378
_audit_creation_date 2012-02-01
_chemical_name_systematic 'Titanium copper (1/4)'
_chemical_formula_structural 'Ti Cu4'
_chemical_formula_sum 'Cu4 Ti1'
_chemical_name_structure_type Au4Zr
_exptl_crystal_density_diffrn 7.89
_publ_section_title
'Zum Aufbau des Systems Ti-Ni-Cu und einiger quasihomologer Legierungen'
_publ_section_comment 'Cell and Type only determined'
loop_
_citation_id
_citation_journal_full
_citation_year
_citation_journal_volume
_citation_page_first
_citation_page_last
_citation_journal_id_ASTM
primary 'Journal of the Less-Common Metals' 1968 14 291 302 JCOMAH
loop_
_publ_author_name
'Pfeifer, H.U.'
'Bhan, S.'
'Schubert, K.'
_cell_length_a 4.530(1)
_cell_length_b 4.342(1)
_cell_length_c 12.930(3)
_cell_angle_alpha 90.
_cell_angle_beta 90.
_cell_angle_gamma 90.
_cell_volume 254.32
_cell_formula_units_Z 4
_symmetry_space_group_name_H-M 'P n m a'
_symmetry_Int_Tables_number 62
loop_
_symmetry_equiv_pos_site_id
_symmetry_equiv_pos_as_xyz
1 'x+1/2, y, -z+1/2'
2 'x, -y+1/2, z'
3 '-x+1/2, y+1/2, z+1/2'
4 '-x, -y, -z'
5 '-x+1/2, -y, z+1/2'
6 '-x, y+1/2, -z'
7 'x+1/2, -y+1/2, -z+1/2'
8 'x, y, z'
loop_
_atom_type_symbol
_atom_type_oxidation_number
Cu0+ 0
Ti0+ 0
loop_
_atom_site_label
_atom_site_type_symbol
_atom_site_symmetry_multiplicity
_atom_site_Wyckoff_symbol
_atom_site_fract_x
_atom_site_fract_y
_atom_site_fract_z
_atom_site_B_iso_or_equiv
_atom_site_occupancy
_atom_site_attached_hydrogens
Cu1 Cu0+ 4 c 0.167 0.25 0 . 1. 0
Cu2 Cu0+ 4 c 0.167 0.25 0.2 . 1. 0
Cu3 Cu0+ 4 c 0.167 0.25 0.6 . 1. 0
Cu4 Cu0+ 4 c 0.167 0.25 0.8 . 1. 0
Ti1 Ti0+ 4 c 0.167 0.25 0.4 . 1. 0
#End of TTdata_629378-ICSD