
data_63063-ICSD
_database_code_ICSD 63063
_audit_creation_date 1989-06-19
_audit_update_record 2014-08-01
_chemical_name_systematic 'Lanthanum rhodium carbide (1/1/2)'
_chemical_formula_structural 'La Rh C2'
_chemical_formula_sum 'C2 La1 Rh1'
_chemical_name_structure_type LaRhC2
_exptl_crystal_density_diffrn 7.21
_cell_length_a 3.981(1)
_cell_length_b 3.981(1)
_cell_length_c 15.35(5)
_cell_angle_alpha 90.
_cell_angle_beta 90.
_cell_angle_gamma 90.
_cell_volume 243.27
_cell_formula_units_Z 4
_symmetry_space_group_name_H-M 'P 41'
_symmetry_Int_Tables_number 76
_refine_ls_R_factor_all 0.03
loop_
_symmetry_equiv_pos_site_id
_symmetry_equiv_pos_as_xyz
1 'y, -x, z+3/4'
2 '-y, x, z+1/4'
3 '-x, -y, z+1/2'
4 'x, y, z'
loop_
_atom_type_symbol
_atom_type_oxidation_number
La0+ 0
Rh0+ 0
C0+ 0
loop_
_atom_site_label
_atom_site_type_symbol
_atom_site_symmetry_multiplicity
_atom_site_Wyckoff_symbol
_atom_site_fract_x
_atom_site_fract_y
_atom_site_fract_z
_atom_site_B_iso_or_equiv
_atom_site_occupancy
_atom_site_attached_hydrogens
La1 La0+ 4 a 0.1525(6) 0.1539(5) 0.875 0.40(7) 1. 0
Rh1 Rh0+ 4 a 0.3422(8) 0.3481(8) 0.4687(1) 0.5(1) 1. 0
C1 C0+ 4 a 0.643(8) 0.327(8) 0.584(1) 0.6(3) 1. 0
C2 C0+ 4 a 0.853(9) 0.359(9) 0.516(2) 0.7(4) 1. 0
