
#(C) 2017 by FIZ Karlsruhe - Leibniz Institute for Information Infrastructure.  All rights reserved.
data_63149-ICSD
_database_code_ICSD 63149
_audit_creation_date 1989-06-19
_audit_update_record 2011-02-01
_chemical_name_systematic 'Trisodium diarsenidoaluminate'
_chemical_formula_structural 'Na3 (Al As2)'
_chemical_formula_sum 'Al1 As2 Na3'
_chemical_name_structure_type Na3AlAs2
_exptl_crystal_density_diffrn 2.8
_publ_section_title
'Na3 Al As2, eine Zintlphase mit Si S2 - isosterer Anionenteilstruktur.'
loop_
_citation_id
_citation_journal_full
_citation_year
_citation_journal_volume
_citation_page_first
_citation_page_last
_citation_journal_id_ASTM
primary 'Zeitschrift fuer Naturforschung, B: Chemical Sciences' 1988 43 1538
1540 ZNBSEN
loop_
_publ_author_name
'Cordier, G.'
'Ochmann, H.'
_cell_length_a 13.604(5)
_cell_length_b 6.895(3)
_cell_length_c 6.227(2)
_cell_angle_alpha 90.
_cell_angle_beta 90.
_cell_angle_gamma 90.
_cell_volume 584.09
_cell_formula_units_Z 4
_symmetry_space_group_name_H-M 'I b a m'
_symmetry_Int_Tables_number 72
_refine_ls_R_factor_all 0.085
loop_
_symmetry_equiv_pos_site_id
_symmetry_equiv_pos_as_xyz
1 '-x, y, z+1/2'
2 'x, -y, z+1/2'
3 'x, y, -z'
4 '-x, -y, -z'
5 'x, -y, -z+1/2'
6 '-x, y, -z+1/2'
7 '-x, -y, z'
8 'x, y, z'
9 '-x+1/2, y+1/2, z'
10 'x+1/2, -y+1/2, z'
11 'x+1/2, y+1/2, -z+1/2'
12 '-x+1/2, -y+1/2, -z+1/2'
13 'x+1/2, -y+1/2, -z'
14 '-x+1/2, y+1/2, -z'
15 '-x+1/2, -y+1/2, z+1/2'
16 'x+1/2, y+1/2, z+1/2'
loop_
_atom_type_symbol
_atom_type_oxidation_number
Na1+ 1
Al3+ 3
As3- -3
loop_
_atom_site_label
_atom_site_type_symbol
_atom_site_symmetry_multiplicity
_atom_site_Wyckoff_symbol
_atom_site_fract_x
_atom_site_fract_y
_atom_site_fract_z
_atom_site_B_iso_or_equiv
_atom_site_occupancy
_atom_site_attached_hydrogens
Na1 Na1+ 8 j 0.6895(6) 0.6931(12) 0 . 1. 0
Na2 Na1+ 4 b 0.5 0 0.25 . 1. 0
Al1 Al3+ 4 a 0 0 0.25 . 1. 0
As1 As3- 8 j 0.1028(1) 0.2002(2) 0 . 1. 0
loop_
_atom_site_aniso_label
_atom_site_aniso_type_symbol
_atom_site_aniso_U_11
_atom_site_aniso_U_22
_atom_site_aniso_U_33
_atom_site_aniso_U_12
_atom_site_aniso_U_13
_atom_site_aniso_U_23
Na1 Na1+ 0.0192(36) 0.0291(40) 0.0622(58) -.0142(34) 0 0
Na2 Na1+ 0.0332(50) 0.0112(40) 0.0179(45) 0 0 0
Al1 Al3+ 0.0054(25) 0.0058(25) 0.0157(30) 0 0 0
As1 As3- 0.0086(8) 0.0093(8) 0.0172(8) -.0041(6) 0 0
#End of TTdata_63149-ICSD