
#(C) 2017 by FIZ Karlsruhe - Leibniz Institute for Information Infrastructure.  All rights reserved.
data_63174-ICSD
_database_code_ICSD 63174
_audit_creation_date 1989-06-19
_audit_update_record 2002-04-01
_chemical_name_systematic 'Diarsenium pentagermanium(II) telluride'
_chemical_formula_structural 'As2 Ge5 Te8'
_chemical_formula_sum 'As2 Ge5 Te8'
_exptl_crystal_density_diffrn 6.3
_publ_section_title
'Structure de l'octatellurure de diarsenic et de pentagermanium.'
loop_
_citation_id
_citation_journal_full
_citation_year
_citation_journal_volume
_citation_page_first
_citation_page_last
_citation_journal_id_ASTM
primary 'Acta Crystallographica, Section C: Crystal Structure Communications'
1987 43 2268 2270 ACSCEE
loop_
_publ_author_name
'Jaulmes, S.'
'Shu, H.W.'
'Mazurier, A.'
_cell_length_a 4.114(1)
_cell_length_b 4.114(1)
_cell_length_c 27.56(1)
_cell_angle_alpha 90.
_cell_angle_beta 90.
_cell_angle_gamma 120.
_cell_volume 403.96
_cell_formula_units_Z 1
_symmetry_space_group_name_H-M 'P -3 m 1'
_symmetry_Int_Tables_number 164
_refine_ls_R_factor_all 0.0508
loop_
_symmetry_equiv_pos_site_id
_symmetry_equiv_pos_as_xyz
1 'x-y, -y, -z'
2 '-x, -x+y, -z'
3 'y, x, -z'
4 'x-y, x, -z'
5 'y, -x+y, -z'
6 '-x, -y, -z'
7 '-x+y, y, z'
8 'x, x-y, z'
9 '-y, -x, z'
10 '-x+y, -x, z'
11 '-y, x-y, z'
12 'x, y, z'
loop_
_atom_type_symbol
_atom_type_oxidation_number
Ge2+ 2
Te2- -2
Ge2+ 2
Te2- -2
Ge2+ 2
Te2- -2
As3+ 3
Te2- -2
loop_
_atom_site_label
_atom_site_type_symbol
_atom_site_symmetry_multiplicity
_atom_site_Wyckoff_symbol
_atom_site_fract_x
_atom_site_fract_y
_atom_site_fract_z
_atom_site_B_iso_or_equiv
_atom_site_occupancy
_atom_site_attached_hydrogens
Ge1 Ge2+ 1 a 0 0 0 . 1. 0
Te1 Te2- 2 d 0.6667 0.3333 0.0627(1) . 1. 0
Ge2 Ge2+ 2 d 0.3333 0.6667 0.1302(2) . 1. 0
Te2 Te2- 2 c 0 0 0.1890(1) . 1. 0
Ge3 Ge2+ 2 d 0.6667 0.3333 0.2614(2) . 1. 0
Te3 Te2- 2 d 0.3333 0.6667 0.31683(8) . 1. 0
As1 As3+ 2 c 0 0 0.3941(1) . 1. 0
Te4 Te2- 2 d 0.6667 0.3333 0.44723(8) . 1. 0
loop_
_atom_site_aniso_label
_atom_site_aniso_type_symbol
_atom_site_aniso_beta_11
_atom_site_aniso_beta_22
_atom_site_aniso_beta_33
_atom_site_aniso_beta_12
_atom_site_aniso_beta_13
_atom_site_aniso_beta_23
Ge1 Ge2+ 0.039(4) 0.039(4) 0.0009(1) 0.0195(4) 0 0
Te1 Te2- 0.0183(9) 0.0183(9) 0.00043(3) 0.00915(8) 0 0
Ge2 Ge2+ 0.033(3) 0.033(3) 0.0010(1) 0.0165(3) 0 0
Te2 Te2- 0.019(1) 0.019(1) 0.00039(4) 0.0095(1) 0 0
Ge3 Ge2+ 0.032(3) 0.032(3) 0.00076(9) 0.016(3) 0 0
Te3 Te2- 0.018(1) 0.018(1) 0.00045(5) 0.009 0 0
As1 As3+ 0.026(2) 0.026(2) 0.00084(8) 0.013(2) 0 0
Te4 Te2- 0.021(1) 0.021(1) 0.00053(4) 0.0105(1) 0 0
#End of TTdata_63174-ICSD