
#(C) 2017 by FIZ Karlsruhe - Leibniz Institute for Information Infrastructure, and the U.S. Secretary of
#Commerce on behalf of the United States.  All rights reserved.
data_631771-ICSD
_database_code_ICSD 631771
_audit_creation_date 2012-02-01
_chemical_name_systematic 'Hafnium iron gallide (1/6/6)'
_chemical_formula_structural 'Hf Fe6 Ga6'
_chemical_formula_sum 'Fe6 Ga6 Hf1'
_chemical_name_structure_type Fe6Ga6Sc
_exptl_crystal_density_diffrn 8.61
_publ_section_title

;
Crystal structure of Sc Fe6 Ga6 and some compounds crystallizing in the Th
Mn12 and Th2 Mn17 type
;
_publ_section_comment 'Cell and Type only determined'
loop_
_citation_id
_citation_journal_full
_citation_year
_citation_journal_volume
_citation_page_first
_citation_page_last
_citation_journal_id_ASTM
primary

;
Dopovidi Akademii Nauk Ukrains'koi RSR, Seriya B: Geologichni, Khimichni ta
Biologichni Nauki
; 1982 1982 31 34 DANND6
loop_
_publ_author_name
'Belyavina, N.N.'
'Markiv, V.Ya.'
_cell_length_a 4.991
_cell_length_b 8.387
_cell_length_c 8.586
_cell_angle_alpha 90.
_cell_angle_beta 90.
_cell_angle_gamma 90.
_cell_volume 359.41
_cell_formula_units_Z 2
_symmetry_space_group_name_H-M 'I m m m'
_symmetry_Int_Tables_number 71
loop_
_symmetry_equiv_pos_site_id
_symmetry_equiv_pos_as_xyz
1 'x, y, -z'
2 'x, -y, z'
3 '-x, y, z'
4 '-x, -y, -z'
5 '-x, -y, z'
6 '-x, y, -z'
7 'x, -y, -z'
8 'x, y, z'
9 'x+1/2, y+1/2, -z+1/2'
10 'x+1/2, -y+1/2, z+1/2'
11 '-x+1/2, y+1/2, z+1/2'
12 '-x+1/2, -y+1/2, -z+1/2'
13 '-x+1/2, -y+1/2, z+1/2'
14 '-x+1/2, y+1/2, -z+1/2'
15 'x+1/2, -y+1/2, -z+1/2'
16 'x+1/2, y+1/2, z+1/2'
loop_
_atom_type_symbol
_atom_type_oxidation_number
Fe0+ 0
Ga0+ 0
Hf0+ 0
loop_
_atom_site_label
_atom_site_type_symbol
_atom_site_symmetry_multiplicity
_atom_site_Wyckoff_symbol
_atom_site_fract_x
_atom_site_fract_y
_atom_site_fract_z
_atom_site_B_iso_or_equiv
_atom_site_occupancy
_atom_site_attached_hydrogens
Fe1 Fe0+ 4 h 0 0.257 0.5 . 1. 0
Fe2 Fe0+ 8 k 0.25 0.25 0.25 . 1. 0
Ga1 Ga0+ 4 g 0 0.336 0 . 1. 0
Ga2 Ga0+ 4 i 0 0 0.345 . 1. 0
Ga3 Ga0+ 4 j 0.5 0 0.835 . 1. 0
Hf1 Hf0+ 2 a 0 0 0 . 1. 0
#End of TTdata_631771-ICSD