
#(C) 2017 by FIZ Karlsruhe - Leibniz Institute for Information Infrastructure, and the U.S. Secretary of
#Commerce on behalf of the United States.  All rights reserved.
data_632434-ICSD
_database_code_ICSD 632434
_audit_creation_date 2010-02-01
_chemical_name_systematic 'Iron lanthanum silicide (1/1/2)'
_chemical_formula_structural 'Fe La Si2'
_chemical_formula_sum 'Fe1 La1 Si2'
_chemical_name_structure_type BaCuSn2
_exptl_crystal_density_diffrn 5.69
_publ_section_title

;
Structures et magnetisme des nouveaux siliciures ternaires R Mn Si2 (R =
La-Sm) et R Fe Si2 (R= La-Nd)
;
_publ_section_comment 'Cell and Type only determined'
loop_
_citation_id
_citation_journal_full
_citation_year
_citation_journal_volume
_citation_page_first
_citation_page_last
_citation_journal_id_ASTM
primary 'Revue de Chimie Minerale' 1986 23 162 182 RVCMA8
loop_
_publ_author_name
'Venturini, G.'
'Malaman, B.'
'Meot Meyer, M.'
'Fruchart, D.'
'le Caer, G.'
'Malterre, D.'
'Roques, B.'
_cell_length_a 4.184(3)
_cell_length_b 17.24(1)
_cell_length_c 4.058(3)
_cell_angle_alpha 90.
_cell_angle_beta 90.
_cell_angle_gamma 90.
_cell_volume 292.71
_cell_formula_units_Z 4
_symmetry_space_group_name_H-M 'C m c m'
_symmetry_Int_Tables_number 63
loop_
_symmetry_equiv_pos_site_id
_symmetry_equiv_pos_as_xyz
1 '-x, y, -z+1/2'
2 '-x, -y, z+1/2'
3 '-x, y, z'
4 '-x, -y, -z'
5 'x, -y, z+1/2'
6 'x, y, -z+1/2'
7 'x, -y, -z'
8 'x, y, z'
9 '-x+1/2, y+1/2, -z+1/2'
10 '-x+1/2, -y+1/2, z+1/2'
11 '-x+1/2, y+1/2, z'
12 '-x+1/2, -y+1/2, -z'
13 'x+1/2, -y+1/2, z+1/2'
14 'x+1/2, y+1/2, -z+1/2'
15 'x+1/2, -y+1/2, -z'
16 'x+1/2, y+1/2, z'
loop_
_atom_type_symbol
_atom_type_oxidation_number
La0+ 0
Fe0+ 0
Si0+ 0
loop_
_atom_site_label
_atom_site_type_symbol
_atom_site_symmetry_multiplicity
_atom_site_Wyckoff_symbol
_atom_site_fract_x
_atom_site_fract_y
_atom_site_fract_z
_atom_site_B_iso_or_equiv
_atom_site_occupancy
_atom_site_attached_hydrogens
La1 La0+ 4 c 0 0.103 .25 . 1. 0
Fe1 Fe0+ 4 c 0 0.753 .25 . 1. 0
Si1 Si0+ 4 c 0 0.323 .25 . 1. 0
Si2 Si0+ 4 c 0 0.461 .25 . 1. 0
#End of TTdata_632434-ICSD