
#(C) 2017 by FIZ Karlsruhe - Leibniz Institute for Information Infrastructure, and the U.S. Secretary of
#Commerce on behalf of the United States.  All rights reserved.
data_632620-ICSD
_database_code_ICSD 632620
_audit_creation_date 2008-08-01
_audit_update_record 2013-02-01
_chemical_name_systematic 'Iron molybdenum (7/6)'
_chemical_formula_structural 'Fe7 Mo6'
_chemical_formula_sum 'Fe7 Mo6'
_chemical_name_structure_type Fe7W6
_exptl_crystal_density_diffrn 9.6
_publ_section_title

;
Crystal structure and composition of the intermediate phases present in
iron-tungsten and iron-molybdenum alloys
;
_publ_section_comment 'Cell and Type only determined'
loop_
_citation_id
_citation_journal_full
_citation_year
_citation_journal_volume
_citation_page_first
_citation_page_last
_citation_journal_id_ASTM
primary 'Jernkontorets Annaler' 1935 119 185 196 JERNAF
loop_
_publ_author_name
'Arnfelt, H.'
'Westgren, A.'
_cell_length_a 8.988
_cell_length_b 8.988
_cell_length_c 8.988
_cell_angle_alpha 30.643
_cell_angle_beta 30.643
_cell_angle_gamma 30.643
_cell_volume 167.24
_cell_formula_units_Z 1
_symmetry_space_group_name_H-M 'R -3 m R'
_symmetry_Int_Tables_number 166
loop_
_symmetry_equiv_pos_site_id
_symmetry_equiv_pos_as_xyz
1 '-z, -y, -x'
2 '-z, -x, -y'
3 '-x, -z, -y'
4 '-y, -z, -x'
5 '-y, -x, -z'
6 '-x, -y, -z'
7 'z, y, x'
8 'z, x, y'
9 'x, z, y'
10 'y, z, x'
11 'y, x, z'
12 'x, y, z'
loop_
_atom_type_symbol
_atom_type_oxidation_number
Fe0+ 0
Mo0+ 0
loop_
_atom_site_label
_atom_site_type_symbol
_atom_site_symmetry_multiplicity
_atom_site_Wyckoff_symbol
_atom_site_fract_x
_atom_site_fract_y
_atom_site_fract_z
_atom_site_B_iso_or_equiv
_atom_site_occupancy
_atom_site_attached_hydrogens
Fe1 Fe0+ 1 a 0 0 0 . 1. 0
Fe2 Fe0+ 6 h 0.09 0.09 0.59 . 1. 0
Mo1 Mo0+ 2 c 0.167 0.167 0.167 . 1. 0
Mo2 Mo0+ 2 c 0.346 0.346 0.346 . 1. 0
Mo3 Mo0+ 2 c 0.448 0.448 0.448 . 1. 0
#End of TTdata_632620-ICSD