
#(C) 2017 by FIZ Karlsruhe - Leibniz Institute for Information Infrastructure.  All rights reserved.
data_63328-ICSD
_database_code_ICSD 63328
_audit_creation_date 1990-12-27
_audit_update_record 2012-02-01
_chemical_name_systematic 'Copper sulfide - LT'
_chemical_formula_structural 'Cu S'
_chemical_formula_sum 'Cu1 S1'
_chemical_name_structure_type CuS
_chemical_name_mineral Covellite
_exptl_crystal_density_diffrn 4.75
_cell_measurement_temperature 8.
_publ_section_title 'Low-temperature structural distortion in Cu S'
loop_
_citation_id
_citation_journal_full
_citation_year
_citation_journal_volume
_citation_page_first
_citation_page_last
_citation_journal_id_ASTM
primary 'Zeitschrift fuer Kristallographie (1979-2010)' 1988 184 111 121 ZEKRDZ
loop_
_publ_author_name
'Fjellvag, H.'
'Gronvold, F.'
'Stolen, S.'
'Andresen, A.F.'
'Mueller Kaefer, R.'
'Simon, A.'
_cell_length_a 3.76
_cell_length_b 6.564
_cell_length_c 16.235
_cell_angle_alpha 90.
_cell_angle_beta 90.
_cell_angle_gamma 90.
_cell_volume 400.69
_cell_formula_units_Z 12
_symmetry_space_group_name_H-M 'C m c m'
_symmetry_Int_Tables_number 63
_refine_ls_R_factor_all 0.048
loop_
_symmetry_equiv_pos_site_id
_symmetry_equiv_pos_as_xyz
1 '-x, y, -z+1/2'
2 '-x, -y, z+1/2'
3 '-x, y, z'
4 '-x, -y, -z'
5 'x, -y, z+1/2'
6 'x, y, -z+1/2'
7 'x, -y, -z'
8 'x, y, z'
9 '-x+1/2, y+1/2, -z+1/2'
10 '-x+1/2, -y+1/2, z+1/2'
11 '-x+1/2, y+1/2, z'
12 '-x+1/2, -y+1/2, -z'
13 'x+1/2, -y+1/2, z+1/2'
14 'x+1/2, y+1/2, -z+1/2'
15 'x+1/2, -y+1/2, -z'
16 'x+1/2, y+1/2, z'
loop_
_atom_type_symbol
_atom_type_oxidation_number
Cu2+ 2
Cu1+ 1
S2- -2
S1- -1
loop_
_atom_site_label
_atom_site_type_symbol
_atom_site_symmetry_multiplicity
_atom_site_Wyckoff_symbol
_atom_site_fract_x
_atom_site_fract_y
_atom_site_fract_z
_atom_site_B_iso_or_equiv
_atom_site_occupancy
_atom_site_attached_hydrogens
Cu1 Cu2+ 4 c 0 0.3623(11) 0.75 0.2 1. 0
Cu2 Cu1+ 8 f 0 0.3372(9) 0.1070(2) 0.2 1. 0
S1 S2- 4 c 0 0.3068(29) 0.25 0.35 1. 0
S2 S1- 8 f 0 0.0008(17) 0.0627(7) 0.35 1. 0
#End of TTdata_63328-ICSD