
#(C) 2017 by FIZ Karlsruhe - Leibniz Institute for Information Infrastructure.  All rights reserved.
data_63367-ICSD
_database_code_ICSD 63367
_audit_creation_date 1994-06-30
_audit_update_record 2012-08-01
_chemical_name_systematic 'Barium tetrabismuth(II) tetraoxide diiodide'
_chemical_formula_structural 'Ba Bi4 O4 I2'
_chemical_formula_sum 'Ba1 Bi4 I2 O4'
_exptl_crystal_density_diffrn 7.69
_publ_section_title

;
Reinvestigation of a Layered Continuous Phase with 'O1X2' Structure, Having
its Centre at BaO(BiOX)3Bi2O3 (X= Cl, Br, I)
;
loop_
_citation_id
_citation_journal_full
_citation_year
_citation_journal_volume
_citation_page_first
_citation_page_last
_citation_journal_id_ASTM
primary 'Chemica Scripta' 1987 27 397 402 CSRPB9
loop_
_publ_author_name
'Aurivillius, B.'
_cell_length_a 4.076
_cell_length_b 4.076
_cell_length_c 33.58
_cell_angle_alpha 90.
_cell_angle_beta 90.
_cell_angle_gamma 90.
_cell_volume 557.89
_cell_formula_units_Z 2
_symmetry_space_group_name_H-M 'I 4/m m m'
_symmetry_Int_Tables_number 139
_refine_ls_R_factor_all 0.1118
loop_
_symmetry_equiv_pos_site_id
_symmetry_equiv_pos_as_xyz
1 'y, x, -z'
2 '-y, -x, -z'
3 '-y, x, -z'
4 'y, -x, -z'
5 '-x, y, -z'
6 'x, -y, -z'
7 'x, y, -z'
8 '-x, -y, -z'
9 '-y, -x, z'
10 'y, x, z'
11 'y, -x, z'
12 '-y, x, z'
13 'x, -y, z'
14 '-x, y, z'
15 '-x, -y, z'
16 'x, y, z'
17 'y+1/2, x+1/2, -z+1/2'
18 '-y+1/2, -x+1/2, -z+1/2'
19 '-y+1/2, x+1/2, -z+1/2'
20 'y+1/2, -x+1/2, -z+1/2'
21 '-x+1/2, y+1/2, -z+1/2'
22 'x+1/2, -y+1/2, -z+1/2'
23 'x+1/2, y+1/2, -z+1/2'
24 '-x+1/2, -y+1/2, -z+1/2'
25 '-y+1/2, -x+1/2, z+1/2'
26 'y+1/2, x+1/2, z+1/2'
27 'y+1/2, -x+1/2, z+1/2'
28 '-y+1/2, x+1/2, z+1/2'
29 'x+1/2, -y+1/2, z+1/2'
30 '-x+1/2, y+1/2, z+1/2'
31 '-x+1/2, -y+1/2, z+1/2'
32 'x+1/2, y+1/2, z+1/2'
loop_
_atom_type_symbol
_atom_type_oxidation_number
Ba2+ 2
Bi2+ 2
I1- -1
O2- -2
loop_
_atom_site_label
_atom_site_type_symbol
_atom_site_symmetry_multiplicity
_atom_site_Wyckoff_symbol
_atom_site_fract_x
_atom_site_fract_y
_atom_site_fract_z
_atom_site_B_iso_or_equiv
_atom_site_occupancy
_atom_site_attached_hydrogens
Ba1 Ba2+ 2 b 0 0 0.5 2.6(3) 1. 0
Bi1 Bi2+ 4 e 0 0 0.0689(2) 1.3(1) 1. 0
Bi2 Bi2+ 4 e 0 0 0.2107(3) 2.2(2) 1. 0
I1 I1- 4 e 0 0 0.3671(3) 0.9(2) 1. 0
O1 O2- 8 g 0 0.5 0.0359(22) 1.5(8) 1. 0
#End of TTdata_63367-ICSD