
#(C) 2017 by FIZ Karlsruhe - Leibniz Institute for Information Infrastructure, and the U.S. Secretary of
#Commerce on behalf of the United States.  All rights reserved.
data_634438-ICSD
_database_code_ICSD 634438
_audit_creation_date 2012-08-01
_chemical_name_systematic 'Iridium gallide (2/9)'
_chemical_formula_structural 'Ir2 Ga9'
_chemical_formula_sum 'Ga9 Ir2'
_chemical_name_structure_type Al9Co2
_exptl_crystal_density_diffrn 9.24
_publ_section_title 'The crystal structure of Rh2 Ga9 and Ir2 Ga9'
_publ_section_comment 'Cell and Type only determined'
loop_
_citation_id
_citation_journal_full
_citation_year
_citation_journal_volume
_citation_page_first
_citation_page_last
_citation_journal_id_ASTM
primary 'Acta Chemica Scandinavica (1-27,1973-42,1988)' 1970 24 1457 1458 ACSAA4
loop_
_publ_author_name
'Edshammar, L.E.'
_cell_length_a 8.853(2)
_cell_length_b 6.467(2)
_cell_length_c 6.409(2)
_cell_angle_alpha 90.
_cell_angle_beta 96.92(4)
_cell_angle_gamma 90.
_cell_volume 364.26
_cell_formula_units_Z 2
_symmetry_space_group_name_H-M 'P 1 21/a 1'
_symmetry_Int_Tables_number 14
loop_
_symmetry_equiv_pos_site_id
_symmetry_equiv_pos_as_xyz
1 'x+1/2, -y+1/2, z'
2 '-x, -y, -z'
3 '-x+1/2, y+1/2, -z'
4 'x, y, z'
loop_
_atom_type_symbol
_atom_type_oxidation_number
Ga0+ 0
Ir0+ 0
loop_
_atom_site_label
_atom_site_type_symbol
_atom_site_symmetry_multiplicity
_atom_site_Wyckoff_symbol
_atom_site_fract_x
_atom_site_fract_y
_atom_site_fract_z
_atom_site_B_iso_or_equiv
_atom_site_occupancy
_atom_site_attached_hydrogens
Ga1 Ga0+ 2 a 0 0 0 . 1. 0
Ga2 Ga0+ 4 e 0.268 0.962 0.404 . 1. 0
Ga3 Ga0+ 4 e 0.231 0.29 0.089 . 1. 0
Ga4 Ga0+ 4 e -.001 0.193 0.389 . 1. 0
Ga5 Ga0+ 4 e 0.042 0.615 0.216 . 1. 0
Ir1 Ir0+ 4 e 0.334 0.615 0.265 . 1. 0
#End of TTdata_634438-ICSD