
#(C) 2017 by FIZ Karlsruhe - Leibniz Institute for Information Infrastructure, and the U.S. Secretary of
#Commerce on behalf of the United States.  All rights reserved.
data_634639-ICSD
_database_code_ICSD 634639
_audit_creation_date 2013-08-01
_audit_update_record 2017-08-01
_chemical_name_systematic 'Manganese gallide (2/5)'
_chemical_formula_structural 'Mn2 Ga5'
_chemical_formula_sum 'Ga5 Mn2'
_chemical_name_structure_type Hg5Mn2
_exptl_crystal_density_diffrn 7.31
_publ_section_title

;
Zum Aufbau einiger zu T(5)-Ga homologer und quasihomologer Systeme. II. Die
Systeme Chrom-Gallium, Mangan-Gallium und Eisen-Gallium sowie einige
Bemerkungen zum Aufbau der Systeme Vanadium-Antimon und Vanadium-Arsen
;
_publ_section_comment 'Cell and Type only determined'
loop_
_citation_id
_citation_journal_full
_citation_year
_citation_journal_volume
_citation_page_first
_citation_page_last
_citation_journal_id_ASTM
primary 'Zeitschrift fuer Metallkunde' 1965 56 523 530 ZEMTAE
loop_
_publ_author_name
'Meissner, Hans-Georg'
'Schubert, Konrad'
_cell_length_a 8.8
_cell_length_b 8.8
_cell_length_c 2.69
_cell_angle_alpha 90.
_cell_angle_beta 90.
_cell_angle_gamma 90.
_cell_volume 208.31
_cell_formula_units_Z 2
_symmetry_space_group_name_H-M 'P 4/m b m'
_symmetry_Int_Tables_number 127
loop_
_symmetry_equiv_pos_site_id
_symmetry_equiv_pos_as_xyz
1 'y+1/2, x+1/2, -z'
2 '-y+1/2, -x+1/2, -z'
3 '-y, x, -z'
4 'y, -x, -z'
5 'x+1/2, -y+1/2, -z'
6 '-x+1/2, y+1/2, -z'
7 'x, y, -z'
8 '-x, -y, -z'
9 '-y+1/2, -x+1/2, z'
10 'y+1/2, x+1/2, z'
11 'y, -x, z'
12 '-y, x, z'
13 '-x+1/2, y+1/2, z'
14 'x+1/2, -y+1/2, z'
15 '-x, -y, z'
16 'x, y, z'
loop_
_atom_type_symbol
_atom_type_oxidation_number
Ga0+ 0
Mn0+ 0
loop_
_atom_site_label
_atom_site_type_symbol
_atom_site_symmetry_multiplicity
_atom_site_Wyckoff_symbol
_atom_site_fract_x
_atom_site_fract_y
_atom_site_fract_z
_atom_site_B_iso_or_equiv
_atom_site_occupancy
_atom_site_attached_hydrogens
Ga1 Ga0+ 2 d 0 0.5 0 . 1. 0
Ga2 Ga0+ 8 i 0.063 0.204 0 . 1. 0
Mn1 Mn0+ 4 h 0.18 0.68 0.5 . 1. 0
#End of TTdata_634639-ICSD