
#(C) 2017 by FIZ Karlsruhe - Leibniz Institute for Information Infrastructure, and the U.S. Secretary of
#Commerce on behalf of the United States.  All rights reserved.
data_635203-ICSD
_database_code_ICSD 635203
_audit_creation_date 2012-08-01
_chemical_name_systematic 'Rhenium gallide (1/3)'
_chemical_formula_structural 'Re Ga3'
_chemical_formula_sum 'Ga3 Re1'
_chemical_name_structure_type CoGa3
_exptl_crystal_density_diffrn 9.12
_publ_section_title 'Crystal chemistry of some germanium and gallium compounds'
_publ_section_comment 'Cell and Type only determined'
loop_
_citation_id
_citation_journal_full
_citation_year
_citation_journal_volume
_citation_page_first
_citation_page_last
_citation_journal_id_ASTM
primary 'Fizika Tekhnika Vysokikh Davlenij' 1983 11 3 12 FTVDDZ
loop_
_publ_author_name
'Popova, S.V.'
_cell_length_a 6.511(2)
_cell_length_b 6.511(2)
_cell_length_c 6.790(2)
_cell_angle_alpha 90.
_cell_angle_beta 90.
_cell_angle_gamma 90.
_cell_volume 287.85
_cell_formula_units_Z 4
_symmetry_space_group_name_H-M 'P 42/m n m'
_symmetry_Int_Tables_number 136
loop_
_symmetry_equiv_pos_site_id
_symmetry_equiv_pos_as_xyz
1 '-y+1/2, x+1/2, -z+1/2'
2 'y+1/2, -x+1/2, -z+1/2'
3 'y, x, -z'
4 '-y, -x, -z'
5 'y+1/2, -x+1/2, z+1/2'
6 '-y+1/2, x+1/2, z+1/2'
7 '-y, -x, z'
8 'y, x, z'
9 'x+1/2, -y+1/2, -z+1/2'
10 '-x+1/2, y+1/2, -z+1/2'
11 'x, y, -z'
12 '-x, -y, -z'
13 '-x+1/2, y+1/2, z+1/2'
14 'x+1/2, -y+1/2, z+1/2'
15 '-x, -y, z'
16 'x, y, z'
loop_
_atom_type_symbol
_atom_type_oxidation_number
Re0+ 0
Ga0+ 0
loop_
_atom_site_label
_atom_site_type_symbol
_atom_site_symmetry_multiplicity
_atom_site_Wyckoff_symbol
_atom_site_fract_x
_atom_site_fract_y
_atom_site_fract_z
_atom_site_B_iso_or_equiv
_atom_site_occupancy
_atom_site_attached_hydrogens
Re1 Re0+ 4 f 0.346 0.346 0 . 1. 0
Ga1 Ga0+ 4 c 0 0.5 0 . 1. 0
Ga2 Ga0+ 8 j 0.152 0.152 .26 . 1. 0
#End of TTdata_635203-ICSD