
#(C) 2017 by FIZ Karlsruhe - Leibniz Institute for Information Infrastructure, and the U.S. Secretary of
#Commerce on behalf of the United States.  All rights reserved.
data_635222-ICSD
_database_code_ICSD 635222
_audit_creation_date 2013-08-01
_chemical_name_systematic 'Rhodium yttrium gallide (3/3/8)'
_chemical_formula_structural 'Rh3 Y3 Ga8'
_chemical_formula_sum 'Ga8 Rh3 Y3'
_chemical_name_structure_type Al11La3
_exptl_crystal_density_diffrn 7.03
_publ_section_title 'Crystal structure of the compound Lu3 Pd1.6 Ga9.4'
_publ_section_comment 'Cell and Type only determined'
loop_
_citation_id
_citation_journal_full
_citation_year
_citation_journal_volume
_citation_page_first
_citation_page_last
_citation_journal_id_ASTM
primary 'Soviet Physics, Crystallography (= Kristallografiya)' 1991 36 503 505
SPHCA6
loop_
_publ_author_name
'Hrin', Yu.N.'
'Sichevich, O.M.'
'Myakush, O.R.'
_cell_length_a 4.316(3)
_cell_length_b 12.715(7)
_cell_length_c 9.705(3)
_cell_angle_alpha 90.
_cell_angle_beta 90.
_cell_angle_gamma 90.
_cell_volume 532.59
_cell_formula_units_Z 2
_symmetry_space_group_name_H-M 'I m m m'
_symmetry_Int_Tables_number 71
loop_
_symmetry_equiv_pos_site_id
_symmetry_equiv_pos_as_xyz
1 'x, y, -z'
2 'x, -y, z'
3 '-x, y, z'
4 '-x, -y, -z'
5 '-x, -y, z'
6 '-x, y, -z'
7 'x, -y, -z'
8 'x, y, z'
9 'x+1/2, y+1/2, -z+1/2'
10 'x+1/2, -y+1/2, z+1/2'
11 '-x+1/2, y+1/2, z+1/2'
12 '-x+1/2, -y+1/2, -z+1/2'
13 '-x+1/2, -y+1/2, z+1/2'
14 '-x+1/2, y+1/2, -z+1/2'
15 'x+1/2, -y+1/2, -z+1/2'
16 'x+1/2, y+1/2, z+1/2'
loop_
_atom_type_symbol
_atom_type_oxidation_number
Ga0+ 0
Rh0+ 0
Y0+ 0
loop_
_atom_site_label
_atom_site_type_symbol
_atom_site_symmetry_multiplicity
_atom_site_Wyckoff_symbol
_atom_site_fract_x
_atom_site_fract_y
_atom_site_fract_z
_atom_site_B_iso_or_equiv
_atom_site_occupancy
_atom_site_attached_hydrogens
Ga1 Ga0+ 8 l 0 0.369 0.282 . 1. 0
Ga2 Ga0+ 8 l 0 0.153 0.367 . 1. 0
Rh1 Rh0+ 2 b 0 0.5 0.5 . 1. 0
Rh2 Rh0+ 4 i 0 0 0.181 . 1. 0
Y1 Y0+ 2 d 0 0.5 0 . 1. 0
Y2 Y0+ 4 g 0 0.201 0 . 1. 0
#End of TTdata_635222-ICSD