
#(C) 2017 by FIZ Karlsruhe - Leibniz Institute for Information Infrastructure, and the U.S. Secretary of
#Commerce on behalf of the United States.  All rights reserved.
data_635208-ICSD
_database_code_ICSD 635208
_audit_creation_date 2012-08-01
_audit_update_record 2017-08-01
_chemical_name_systematic 'Rhodium gallide (1/3)'
_chemical_formula_structural 'Rh Ga3'
_chemical_formula_sum 'Ga3 Rh1'
_chemical_name_structure_type CoGa3
_exptl_crystal_density_diffrn 7.47
_publ_section_title 'Einige strukturelle Ergebnisse an metallischen Phasen III'
_publ_section_comment 'Cell and Type only determined'
loop_
_citation_id
_citation_journal_full
_citation_year
_citation_journal_volume
_citation_page_first
_citation_page_last
_citation_journal_id_ASTM
primary Naturwissenschaften 1958 45 360 361 NATWAY
loop_
_publ_author_name
'Schubert, K.'
'Breimer, H.'
'Gohle, R.'
'Lukas, H.L.'
'Meissner, H.G.'
'Stolz, E.'
_cell_length_a 6.488
_cell_length_b 6.488
_cell_length_c 6.553
_cell_angle_alpha 90.
_cell_angle_beta 90.
_cell_angle_gamma 90.
_cell_volume 275.84
_cell_formula_units_Z 4
_symmetry_space_group_name_H-M 'P 42/m n m'
_symmetry_Int_Tables_number 136
loop_
_symmetry_equiv_pos_site_id
_symmetry_equiv_pos_as_xyz
1 '-y+1/2, x+1/2, -z+1/2'
2 'y+1/2, -x+1/2, -z+1/2'
3 'y, x, -z'
4 '-y, -x, -z'
5 'y+1/2, -x+1/2, z+1/2'
6 '-y+1/2, x+1/2, z+1/2'
7 '-y, -x, z'
8 'y, x, z'
9 'x+1/2, -y+1/2, -z+1/2'
10 '-x+1/2, y+1/2, -z+1/2'
11 'x, y, -z'
12 '-x, -y, -z'
13 '-x+1/2, y+1/2, z+1/2'
14 'x+1/2, -y+1/2, z+1/2'
15 '-x, -y, z'
16 'x, y, z'
loop_
_atom_type_symbol
_atom_type_oxidation_number
Rh0+ 0
Ga0+ 0
loop_
_atom_site_label
_atom_site_type_symbol
_atom_site_symmetry_multiplicity
_atom_site_Wyckoff_symbol
_atom_site_fract_x
_atom_site_fract_y
_atom_site_fract_z
_atom_site_B_iso_or_equiv
_atom_site_occupancy
_atom_site_attached_hydrogens
Rh1 Rh0+ 4 f 0.344 0.344 0 . 1. 0
Ga1 Ga0+ 4 c 0 0.5 0 . 1. 0
Ga2 Ga0+ 8 j 0.154 0.154 .26 . 1. 0
#End of TTdata_635208-ICSD