
#(C) 2017 by FIZ Karlsruhe - Leibniz Institute for Information Infrastructure, and the U.S. Secretary of
#Commerce on behalf of the United States.  All rights reserved.
data_635448-ICSD
_database_code_ICSD 635448
_audit_creation_date 2012-08-01
_chemical_name_systematic 'Tantalum stannide gallide (5/1/2)'
_chemical_formula_structural 'Ta5 Sn Ga2'
_chemical_formula_sum 'Ga2 Sn1 Ta5'
_chemical_name_structure_type Mo5Si3
_exptl_crystal_density_diffrn 13.96
_publ_section_title

;
Growth and superconductivity of a new ternary intermetallic compound, Ta5 Ga2
Sn
;
_publ_section_comment 'Cell and Type only determined'
loop_
_citation_id
_citation_journal_full
_citation_year
_citation_journal_volume
_citation_page_first
_citation_page_last
_citation_journal_id_ASTM
primary 'Japanese Journal of Applied Physics' 1989 28 1519 1520 JJAPA5
loop_
_publ_author_name
'Shishido, T.'
'Ye, J.'
'Toyota, N.'
'Ukei, K.'
'Sasaki, T.'
'Horiuchi, H.'
'Fukuda, T.'
_cell_length_a 10.342(2)
_cell_length_b 10.342(2)
_cell_length_c 5.174(2)
_cell_angle_alpha 90.
_cell_angle_beta 90.
_cell_angle_gamma 90.
_cell_volume 553.4
_cell_formula_units_Z 4
_symmetry_space_group_name_H-M 'I 4/m c m'
_symmetry_Int_Tables_number 140
loop_
_symmetry_equiv_pos_site_id
_symmetry_equiv_pos_as_xyz
1 'y, x, -z+1/2'
2 '-y, -x, -z+1/2'
3 '-y, x, -z'
4 'y, -x, -z'
5 'x, -y, -z+1/2'
6 '-x, y, -z+1/2'
7 'x, y, -z'
8 '-x, -y, -z'
9 '-y, -x, z+1/2'
10 'y, x, z+1/2'
11 'y, -x, z'
12 '-y, x, z'
13 '-x, y, z+1/2'
14 'x, -y, z+1/2'
15 '-x, -y, z'
16 'x, y, z'
17 'y+1/2, x+1/2, -z'
18 '-y+1/2, -x+1/2, -z'
19 '-y+1/2, x+1/2, -z+1/2'
20 'y+1/2, -x+1/2, -z+1/2'
21 'x+1/2, -y+1/2, -z'
22 '-x+1/2, y+1/2, -z'
23 'x+1/2, y+1/2, -z+1/2'
24 '-x+1/2, -y+1/2, -z+1/2'
25 '-y+1/2, -x+1/2, z'
26 'y+1/2, x+1/2, z'
27 'y+1/2, -x+1/2, z+1/2'
28 '-y+1/2, x+1/2, z+1/2'
29 '-x+1/2, y+1/2, z'
30 'x+1/2, -y+1/2, z'
31 '-x+1/2, -y+1/2, z+1/2'
32 'x+1/2, y+1/2, z+1/2'
loop_
_atom_type_symbol
_atom_type_oxidation_number
Ta0+ 0
Ga0+ 0
Sn0+ 0
loop_
_atom_site_label
_atom_site_type_symbol
_atom_site_symmetry_multiplicity
_atom_site_Wyckoff_symbol
_atom_site_fract_x
_atom_site_fract_y
_atom_site_fract_z
_atom_site_B_iso_or_equiv
_atom_site_occupancy
_atom_site_attached_hydrogens
Ta1 Ta0+ 16 k 0.073 0.22 0 . 1. 0
Ta2 Ta0+ 4 b 0 0.5 0.25 . 1. 0
Ga1 Ga0+ 8 h 0.167 0.667 0 . 1. 0
Sn1 Sn0+ 4 a 0 0 0.25 . 1. 0
#End of TTdata_635448-ICSD