
#(C) 2017 by FIZ Karlsruhe - Leibniz Institute for Information Infrastructure, and the U.S. Secretary of
#Commerce on behalf of the United States.  All rights reserved.
data_635697-ICSD
_database_code_ICSD 635697
_audit_creation_date 2013-08-01
_audit_update_record 2017-08-01
_chemical_name_systematic 'Zirconium gallide (3/5)'
_chemical_formula_structural 'Zr3 Ga5'
_chemical_formula_sum 'Ga5 Zr3'
_chemical_name_structure_type Pu3Pd5
_exptl_crystal_density_diffrn 7.23
_publ_section_title

;
Zum Aufbau einiger T(4)-B(3) homologer und quasihomologer Systeme. I. Die
Systeme Titan-Gallium, Zirkonium-Gallium und Hafnium-Gallium
;
_publ_section_comment 'Cell and Type only determined'
loop_
_citation_id
_citation_journal_full
_citation_year
_citation_journal_volume
_citation_page_first
_citation_page_last
_citation_journal_id_ASTM
primary 'Zeitschrift fuer Metallkunde' 1962 53 474 488 ZEMTAE
loop_
_publ_author_name
'Poetzschke, Manfred'
'Schubert, Konrad'
_cell_length_a 8.848
_cell_length_b 7.111
_cell_length_c 9.084
_cell_angle_alpha 90.
_cell_angle_beta 90.
_cell_angle_gamma 90.
_cell_volume 571.55
_cell_formula_units_Z 4
_symmetry_space_group_name_H-M 'C m c m'
_symmetry_Int_Tables_number 63
loop_
_symmetry_equiv_pos_site_id
_symmetry_equiv_pos_as_xyz
1 '-x, y, -z+1/2'
2 '-x, -y, z+1/2'
3 '-x, y, z'
4 '-x, -y, -z'
5 'x, -y, z+1/2'
6 'x, y, -z+1/2'
7 'x, -y, -z'
8 'x, y, z'
9 '-x+1/2, y+1/2, -z+1/2'
10 '-x+1/2, -y+1/2, z+1/2'
11 '-x+1/2, y+1/2, z'
12 '-x+1/2, -y+1/2, -z'
13 'x+1/2, -y+1/2, z+1/2'
14 'x+1/2, y+1/2, -z+1/2'
15 'x+1/2, -y+1/2, -z'
16 'x+1/2, y+1/2, z'
loop_
_atom_type_symbol
_atom_type_oxidation_number
Zr0+ 0
Ga0+ 0
loop_
_atom_site_label
_atom_site_type_symbol
_atom_site_symmetry_multiplicity
_atom_site_Wyckoff_symbol
_atom_site_fract_x
_atom_site_fract_y
_atom_site_fract_z
_atom_site_B_iso_or_equiv
_atom_site_occupancy
_atom_site_attached_hydrogens
Zr1 Zr0+ 4 c 0 0.632 0.25 . 1. 0
Zr2 Zr0+ 8 e 0.206 0 0 . 1. 0
Ga1 Ga0+ 4 c 0 0.018 0.25 . 1. 0
Ga2 Ga0+ 8 f 0 0.309 0.448 . 1. 0
Ga3 Ga0+ 8 g 0.208 0.284 0.25 . 1. 0
#End of TTdata_635697-ICSD