
data_637346-ICSD
_database_code_ICSD 637346
_audit_creation_date 2008-08-01
_audit_update_record 2013-02-01
_chemical_name_systematic 'Germanium nickel (1/2)'
_chemical_formula_structural 'Ge Ni2'
_chemical_formula_sum 'Ge1 Ni2'
_chemical_name_structure_type InNi2
_exptl_crystal_density_diffrn 9.79
_cell_length_a 3.847(3)
_cell_length_b 3.847(3)
_cell_length_c 5.027(5)
_cell_angle_alpha 90.
_cell_angle_beta 90.
_cell_angle_gamma 120.
_cell_volume 64.43
_cell_formula_units_Z 2
_symmetry_space_group_name_H-M 'P -6 m 2'
_symmetry_Int_Tables_number 187
loop_
_symmetry_equiv_pos_site_id
_symmetry_equiv_pos_as_xyz
1 'x, x-y, -z'
2 '-x+y, y, -z'
3 '-y, -x, -z'
4 'x, x-y, z'
5 '-x+y, y, z'
6 '-y, -x, z'
7 '-x+y, -x, -z'
8 '-y, x-y, -z'
9 'x, y, -z'
10 '-x+y, -x, z'
11 '-y, x-y, z'
12 'x, y, z'
loop_
_atom_type_symbol
_atom_type_oxidation_number
Ge0+ 0
Ni0+ 0
loop_
_atom_site_label
_atom_site_type_symbol
_atom_site_symmetry_multiplicity
_atom_site_Wyckoff_symbol
_atom_site_fract_x
_atom_site_fract_y
_atom_site_fract_z
_atom_site_B_iso_or_equiv
_atom_site_occupancy
_atom_site_attached_hydrogens
Ge1 Ge0+ 1 d 0.3333 0.6667 0.5 . 1. 0
Ge2 Ge0+ 1 e 0.6667 0.3333 0 . 1. 0
Ni1 Ni0+ 1 c 0.3333 0.6667 0 . 1. 0
Ni2 Ni0+ 1 f 0.6667 0.3333 0.5 . 1. 0
Ni3 Ni0+ 2 g 0 0 0.25 . 1. 0
