
data_637455-ICSD
_database_code_ICSD 637455
_audit_creation_date 2008-08-01
_audit_update_record 2017-08-01
_chemical_name_systematic 'Germanium dioxide'
_chemical_formula_structural 'Ge O2'
_chemical_formula_sum 'Ge1 O2'
_chemical_name_structure_type Quartz,low
_exptl_crystal_density_diffrn 4.63
_cell_measurement_temperature 293.
_cell_measurement_pressure 4580000.
_cell_length_a 4.8310(6)
_cell_length_b 4.8310(6)
_cell_length_c 5.5680(10)
_cell_angle_alpha 90.
_cell_angle_beta 90.
_cell_angle_gamma 120.
_cell_volume 112.54
_cell_formula_units_Z 3
_symmetry_space_group_name_H-M 'P 32 2 1'
_symmetry_Int_Tables_number 154
_refine_ls_R_factor_all 0.073
loop_
_symmetry_equiv_pos_site_id
_symmetry_equiv_pos_as_xyz
1 '-x, -x+y, -z+2/3'
2 'x-y, -y, -z+1/3'
3 'y, x, -z'
4 '-x+y, -x, z+1/3'
5 '-y, x-y, z+2/3'
6 'x, y, z'
loop_
_atom_type_symbol
_atom_type_oxidation_number
Ge4+ 4
O2- -2
loop_
_atom_site_label
_atom_site_type_symbol
_atom_site_symmetry_multiplicity
_atom_site_Wyckoff_symbol
_atom_site_fract_x
_atom_site_fract_y
_atom_site_fract_z
_atom_site_B_iso_or_equiv
_atom_site_occupancy
_atom_site_attached_hydrogens
Ge1 Ge4+ 3 a 0.4470(11) 0 0.6667 0.9 1 0
O1 O2- 6 c 0.3896(15) 0.3129(12) 0.7480(11) 1.4 1 0
