
#(C) 2017 by FIZ Karlsruhe - Leibniz Institute for Information Infrastructure, and the U.S. Secretary of
#Commerce on behalf of the United States.  All rights reserved.
data_638055-ICSD
_database_code_ICSD 638055
_audit_creation_date 2012-08-01
_chemical_name_systematic 'Titanium germanide (3/1)'
_chemical_formula_structural 'Ti3 Ge'
_chemical_formula_sum 'Ge1 Ti3'
_chemical_name_structure_type Ni3P
_exptl_crystal_density_diffrn 5.28
_publ_section_title 'Strukturuntersuchungen in einigen T(4-5)-B(4-5) Systemen'
_publ_section_comment 'Cell and Type only determined'
loop_
_citation_id
_citation_journal_full
_citation_year
_citation_journal_volume
_citation_page_first
_citation_page_last
_citation_journal_id_ASTM
primary 'Zeitschrift fuer Metallkunde' 1965 56 813 822 ZEMTAE
loop_
_publ_author_name
'Rossteutscher, W.'
'Schubert, K.'
_cell_length_a 10.29
_cell_length_b 10.29
_cell_length_c 5.14
_cell_angle_alpha 90.
_cell_angle_beta 90.
_cell_angle_gamma 90.
_cell_volume 544.24
_cell_formula_units_Z 8
_symmetry_space_group_name_H-M 'I -4'
_symmetry_Int_Tables_number 82
loop_
_symmetry_equiv_pos_site_id
_symmetry_equiv_pos_as_xyz
1 '-y, x, -z'
2 'y, -x, -z'
3 '-x, -y, z'
4 'x, y, z'
5 '-y+1/2, x+1/2, -z+1/2'
6 'y+1/2, -x+1/2, -z+1/2'
7 '-x+1/2, -y+1/2, z+1/2'
8 'x+1/2, y+1/2, z+1/2'
loop_
_atom_type_symbol
_atom_type_oxidation_number
Ti0+ 0
Ge0+ 0
loop_
_atom_site_label
_atom_site_type_symbol
_atom_site_symmetry_multiplicity
_atom_site_Wyckoff_symbol
_atom_site_fract_x
_atom_site_fract_y
_atom_site_fract_z
_atom_site_B_iso_or_equiv
_atom_site_occupancy
_atom_site_attached_hydrogens
Ti1 Ti0+ 8 g 0.083 0.102 0.238 . 1. 0
Ti2 Ti0+ 8 g 0.358 0.024 0.992 . 1. 0
Ti3 Ti0+ 8 g 0.184 0.216 0.758 . 1. 0
Ge1 Ge0+ 8 g 0.294 0.026 0.474 . 1. 0
#End of TTdata_638055-ICSD