
#(C) 2017 by FIZ Karlsruhe - Leibniz Institute for Information Infrastructure, and the U.S. Secretary of
#Commerce on behalf of the United States.  All rights reserved.
data_638584-ICSD
_database_code_ICSD 638584
_audit_creation_date 2013-08-01
_chemical_name_systematic 'Hafnium iridium silicide (1/1/1)'
_chemical_formula_structural 'Hf Ir Si'
_chemical_formula_sum 'Hf1 Ir1 Si1'
_chemical_name_structure_type TiNiSi-MgSrSi
_exptl_crystal_density_diffrn 14.15
_publ_section_title 'Ternary equiatomic hafnium-transition metal silicides'
_publ_section_comment 'Cell and Type only determined'
loop_
_citation_id
_citation_journal_full
_citation_year
_citation_journal_volume
_citation_page_first
_citation_page_last
_citation_journal_id_ASTM
primary 'Journal of the Less-Common Metals' 1990 163 L7 L12 JCOMAH
loop_
_publ_author_name
'Zhao, J.T.'
'Parthe, E.'
_cell_length_a 6.469(2)
_cell_length_b 3.935(1)
_cell_length_c 7.374(2)
_cell_angle_alpha 90.
_cell_angle_beta 90.
_cell_angle_gamma 90.
_cell_volume 187.71
_cell_formula_units_Z 4
_symmetry_space_group_name_H-M 'P n m a'
_symmetry_Int_Tables_number 62
loop_
_symmetry_equiv_pos_site_id
_symmetry_equiv_pos_as_xyz
1 'x+1/2, y, -z+1/2'
2 'x, -y+1/2, z'
3 '-x+1/2, y+1/2, z+1/2'
4 '-x, -y, -z'
5 '-x+1/2, -y, z+1/2'
6 '-x, y+1/2, -z'
7 'x+1/2, -y+1/2, -z+1/2'
8 'x, y, z'
loop_
_atom_type_symbol
_atom_type_oxidation_number
Hf0+ 0
Ir0+ 0
Si0+ 0
loop_
_atom_site_label
_atom_site_type_symbol
_atom_site_symmetry_multiplicity
_atom_site_Wyckoff_symbol
_atom_site_fract_x
_atom_site_fract_y
_atom_site_fract_z
_atom_site_B_iso_or_equiv
_atom_site_occupancy
_atom_site_attached_hydrogens
Hf1 Hf0+ 4 c 0.02 0.25 0.685 . 1. 0
Ir1 Ir0+ 4 c 0.15 0.25 0.065 . 1. 0
Si1 Si0+ 4 c 0.274 0.25 0.382 . 1. 0
#End of TTdata_638584-ICSD