
#(C) 2017 by FIZ Karlsruhe - Leibniz Institute for Information Infrastructure, and the U.S. Secretary of
#Commerce on behalf of the United States.  All rights reserved.
data_638840-ICSD
_database_code_ICSD 638840
_audit_creation_date 2013-08-01
_chemical_name_systematic 'Hafnium ruthenium silicide (1/1/1)'
_chemical_formula_structural 'Hf Ru Si'
_chemical_formula_sum 'Hf1 Ru1 Si1'
_chemical_name_structure_type FeSiTi
_exptl_crystal_density_diffrn 11.01
_publ_section_title 'Ternary equiatomic hafnium-transition metal silicides'
_publ_section_comment 'Cell and Type only determined'
loop_
_citation_id
_citation_journal_full
_citation_year
_citation_journal_volume
_citation_page_first
_citation_page_last
_citation_journal_id_ASTM
primary 'Journal of the Less-Common Metals' 1990 163 L7 L12 JCOMAH
loop_
_publ_author_name
'Zhao, J.T.'
'Parthe, E.'
_cell_length_a 7.295(2)
_cell_length_b 11.504(2)
_cell_length_c 6.633(5)
_cell_angle_alpha 90.
_cell_angle_beta 90.
_cell_angle_gamma 90.
_cell_volume 556.65
_cell_formula_units_Z 12
_symmetry_space_group_name_H-M 'I m a 2'
_symmetry_Int_Tables_number 46
loop_
_symmetry_equiv_pos_site_id
_symmetry_equiv_pos_as_xyz
1 'x+1/2, -y, z'
2 '-x+1/2, y, z'
3 '-x, -y, z'
4 'x, y, z'
5 'x, -y+1/2, z+1/2'
6 '-x, y+1/2, z+1/2'
7 '-x+1/2, -y+1/2, z+1/2'
8 'x+1/2, y+1/2, z+1/2'
loop_
_atom_type_symbol
_atom_type_oxidation_number
Si0+ 0
Ru0+ 0
Hf0+ 0
loop_
_atom_site_label
_atom_site_type_symbol
_atom_site_symmetry_multiplicity
_atom_site_Wyckoff_symbol
_atom_site_fract_x
_atom_site_fract_y
_atom_site_fract_z
_atom_site_B_iso_or_equiv
_atom_site_occupancy
_atom_site_attached_hydrogens
Si1 Si0+ 8 c 0.006 0.167 0.995 . 1. 0
Si2 Si0+ 4 b 0.25 0.975 0.505 . 1. 0
Ru1 Ru0+ 8 c 0.029 0.376 0.12 . 1. 0
Ru2 Ru0+ 4 a 0 0 0.25 . 1. 0
Hf1 Hf0+ 4 b 0.25 0.2 0.296 . 1. 0
Hf2 Hf0+ 4 b 0.25 0.779 0.271 . 1. 0
Hf3 Hf0+ 4 b 0.25 0.998 0.918 . 1. 0
#End of TTdata_638840-ICSD