
#(C) 2017 by FIZ Karlsruhe - Leibniz Institute for Information Infrastructure, and the U.S. Secretary of
#Commerce on behalf of the United States.  All rights reserved.
data_638834-ICSD
_database_code_ICSD 638834
_audit_creation_date 2013-08-01
_chemical_name_systematic 'Hafnium rhodium silicide (1/1/1)'
_chemical_formula_structural 'Hf Rh Si'
_chemical_formula_sum 'Hf1 Rh1 Si1'
_chemical_name_structure_type TiNiSi-MgSrSi
_exptl_crystal_density_diffrn 10.92
_publ_section_title

;
Relationships between occurence of superconductivity and crystal structure in
new equiatomic ternary silicides M T Si (M = Ti, Zr, Hf and T = Ru, Os, Rh)
;
_publ_section_comment 'Cell and Type only determined'
loop_
_citation_id
_citation_journal_full
_citation_year
_citation_journal_volume
_citation_page_first
_citation_page_last
_citation_journal_id_ASTM
primary 'Solid State Communications' 1986 59 839 841 SSCOA4
loop_
_publ_author_name
'Zhong, W.X.'
'Chevalier, B.'
'Etourneau, J.'
'Hagenmuller, P.'
_cell_length_a 6.47
_cell_length_b 3.91
_cell_length_c 7.397
_cell_angle_alpha 90.
_cell_angle_beta 90.
_cell_angle_gamma 90.
_cell_volume 187.13
_cell_formula_units_Z 4
_symmetry_space_group_name_H-M 'P n m a'
_symmetry_Int_Tables_number 62
loop_
_symmetry_equiv_pos_site_id
_symmetry_equiv_pos_as_xyz
1 'x+1/2, y, -z+1/2'
2 'x, -y+1/2, z'
3 '-x+1/2, y+1/2, z+1/2'
4 '-x, -y, -z'
5 '-x+1/2, -y, z+1/2'
6 '-x, y+1/2, -z'
7 'x+1/2, -y+1/2, -z+1/2'
8 'x, y, z'
loop_
_atom_type_symbol
_atom_type_oxidation_number
Hf0+ 0
Rh0+ 0
Si0+ 0
loop_
_atom_site_label
_atom_site_type_symbol
_atom_site_symmetry_multiplicity
_atom_site_Wyckoff_symbol
_atom_site_fract_x
_atom_site_fract_y
_atom_site_fract_z
_atom_site_B_iso_or_equiv
_atom_site_occupancy
_atom_site_attached_hydrogens
Hf1 Hf0+ 4 c 0.024 0.25 0.169 . 1. 0
Rh1 Rh0+ 4 c 0.144 0.25 0.58 . 1. 0
Si1 Si0+ 4 c 0.732 0.25 0.57 . 1. 0
#End of TTdata_638834-ICSD