
#(C) 2017 by FIZ Karlsruhe - Leibniz Institute for Information Infrastructure, and the U.S. Secretary of
#Commerce on behalf of the United States.  All rights reserved.
data_638934-ICSD
_database_code_ICSD 638934
_audit_creation_date 2013-08-01
_chemical_name_systematic 'Hafnium tungsten silicide (1/1/1)'
_chemical_formula_structural 'Hf W Si'
_chemical_formula_sum 'Hf1 Si1 W1'
_chemical_name_structure_type TiNiSi-MgSrSi
_exptl_crystal_density_diffrn 13.02
_publ_section_title

;
New ternary compounds of equiatomic composition in the systems of two
transition metals and silicon or germanium
;
_publ_section_comment 'Cell and Type only determined'
loop_
_citation_id
_citation_journal_full
_citation_year
_citation_journal_volume
_citation_page_first
_citation_page_last
_citation_journal_id_ASTM
primary 'Dopov. Akad. Nauk Ukr. RSR Ser. B' 1974 36 1030 * DBGGAM
loop_
_publ_author_name
'Yarmolyuk, Ya.P.'
'Gladyshevskii, E.I.'
_cell_length_a 6.891(5)
_cell_length_b 8.195(6)
_cell_length_c 3.526(2)
_cell_angle_alpha 90.
_cell_angle_beta 90.
_cell_angle_gamma 90.
_cell_volume 199.12
_cell_formula_units_Z 4
_symmetry_space_group_name_H-M 'P n a m'
_symmetry_Int_Tables_number 62
loop_
_symmetry_equiv_pos_site_id
_symmetry_equiv_pos_as_xyz
1 'x+1/2, -y+1/2, z'
2 'x, y, -z+1/2'
3 '-x+1/2, y+1/2, z+1/2'
4 '-x, -y, -z'
5 '-x+1/2, y+1/2, -z'
6 '-x, -y, z+1/2'
7 'x+1/2, -y+1/2, -z+1/2'
8 'x, y, z'
loop_
_atom_type_symbol
_atom_type_oxidation_number
Hf0+ 0
W0+ 0
Si0+ 0
loop_
_atom_site_label
_atom_site_type_symbol
_atom_site_symmetry_multiplicity
_atom_site_Wyckoff_symbol
_atom_site_fract_x
_atom_site_fract_y
_atom_site_fract_z
_atom_site_B_iso_or_equiv
_atom_site_occupancy
_atom_site_attached_hydrogens
Hf1 Hf0+ 4 c 0.042 0.667 0.25 . 1. 0
W1 W0+ 4 c 0.134 0.062 0.25 . 1. 0
Si1 Si0+ 4 c 0.256 0.364 0.25 . 1. 0
#End of TTdata_638934-ICSD