
data_638941-ICSD
_database_code_ICSD 638941
_audit_creation_date 2010-02-01
_audit_update_record 2017-08-01
_chemical_name_systematic 'Hafnium stannide (1/2)'
_chemical_formula_structural 'Hf Sn2'
_chemical_formula_sum 'Hf1 Sn2'
_chemical_name_structure_type CrSi2
_exptl_crystal_density_diffrn 10.42
_cell_length_a 5.487
_cell_length_b 5.487
_cell_length_c 7.625
_cell_angle_alpha 90.
_cell_angle_beta 90.
_cell_angle_gamma 120.
_cell_volume 198.81
_cell_formula_units_Z 3
_symmetry_space_group_name_H-M 'P 62 2 2'
_symmetry_Int_Tables_number 180
loop_
_symmetry_equiv_pos_site_id
_symmetry_equiv_pos_as_xyz
1 'x, x-y, -z+1/3'
2 '-x+y, y, -z'
3 '-y, -x, -z+2/3'
4 '-x, -x+y, -z+1/3'
5 'x-y, -y, -z'
6 'y, x, -z+2/3'
7 'x-y, x, z+1/3'
8 'y, -x+y, z+2/3'
9 '-x, -y, z'
10 '-x+y, -x, z+1/3'
11 '-y, x-y, z+2/3'
12 'x, y, z'
loop_
_atom_type_symbol
_atom_type_oxidation_number
Hf0+ 0
Sn0+ 0
loop_
_atom_site_label
_atom_site_type_symbol
_atom_site_symmetry_multiplicity
_atom_site_Wyckoff_symbol
_atom_site_fract_x
_atom_site_fract_y
_atom_site_fract_z
_atom_site_B_iso_or_equiv
_atom_site_occupancy
_atom_site_attached_hydrogens
Hf1 Hf0+ 3 d 0.5 0 0.5 . 1. 0
Sn1 Sn0+ 6 j 0.165 0.33 0.5 . 1. 0
