
#(C) 2017 by FIZ Karlsruhe - Leibniz Institute for Information Infrastructure, and the U.S. Secretary of
#Commerce on behalf of the United States.  All rights reserved.
data_640249-ICSD
_database_code_ICSD 640249
_audit_creation_date 2013-08-01
_chemical_name_systematic 'Indium palladium strontium (1/1/1)'
_chemical_formula_structural 'In Pd Sr'
_chemical_formula_sum 'In1 Pd1 Sr1'
_chemical_name_structure_type TiNiSi-MgSrSi
_exptl_crystal_density_diffrn 6.96
_publ_section_title

;
Thermodynamic and physical properties of mixed-valence Yb Pd In and M Pd In
intermetallic compounds (M = Ca, Sr, Er, Eu)
;
_publ_section_comment 'Cell and Type only determined'
loop_
_citation_id
_citation_journal_full
_citation_year
_citation_journal_volume
_citation_page_first
_citation_page_last
_citation_journal_id_ASTM
primary 'Journal of the Less-Common Metals' 1985 107 179 187 JCOMAH
loop_
_publ_author_name
'Cirafici, S.'
'Palenzona, A.'
'Canepa, F.'
_cell_length_a 7.585
_cell_length_b 4.513
_cell_length_c 8.609
_cell_angle_alpha 90.
_cell_angle_beta 90.
_cell_angle_gamma 90.
_cell_volume 294.7
_cell_formula_units_Z 4
_symmetry_space_group_name_H-M 'P n m a'
_symmetry_Int_Tables_number 62
loop_
_symmetry_equiv_pos_site_id
_symmetry_equiv_pos_as_xyz
1 'x+1/2, y, -z+1/2'
2 'x, -y+1/2, z'
3 '-x+1/2, y+1/2, z+1/2'
4 '-x, -y, -z'
5 '-x+1/2, -y, z+1/2'
6 '-x, y+1/2, -z'
7 'x+1/2, -y+1/2, -z+1/2'
8 'x, y, z'
loop_
_atom_type_symbol
_atom_type_oxidation_number
Sr0+ 0
Pd0+ 0
In0+ 0
loop_
_atom_site_label
_atom_site_type_symbol
_atom_site_symmetry_multiplicity
_atom_site_Wyckoff_symbol
_atom_site_fract_x
_atom_site_fract_y
_atom_site_fract_z
_atom_site_B_iso_or_equiv
_atom_site_occupancy
_atom_site_attached_hydrogens
Sr1 Sr0+ 4 c 0.029 0.25 0.678 . 1. 0
Pd1 Pd0+ 4 c 0.279 0.25 0.379 . 1. 0
In1 In0+ 4 c 0.146 0.25 0.066 . 1. 0
#End of TTdata_640249-ICSD