
#(C) 2017 by FIZ Karlsruhe - Leibniz Institute for Information Infrastructure, and the U.S. Secretary of
#Commerce on behalf of the United States.  All rights reserved.
data_640618-ICSD
_database_code_ICSD 640618
_audit_creation_date 2013-08-01
_audit_update_record 2017-08-01
_chemical_name_systematic 'Indium telluride (2/1)'
_chemical_formula_structural 'In2 Te'
_chemical_formula_sum 'In2 Te1'
_chemical_name_structure_type TiAs2
_exptl_crystal_density_diffrn 5.49
_publ_section_title 'Kristallchemische Ergebnisse an Phasen aus B-Elementen'
_publ_section_comment 'Cell and Type only determined'
loop_
_citation_id
_citation_journal_full
_citation_year
_citation_journal_volume
_citation_page_first
_citation_page_last
_citation_journal_id_ASTM
primary Naturwissenschaften 1954 41 448 448 NATWAY
loop_
_publ_author_name
'Schubert, Konrad'
'Doerre, Erhard'
'Guenzel, Eberhard'
_cell_length_a 15.35
_cell_length_b 12.62
_cell_length_c 4.46
_cell_angle_alpha 90.
_cell_angle_beta 90.
_cell_angle_gamma 90.
_cell_volume 863.98
_cell_formula_units_Z 8
_symmetry_space_group_name_H-M 'P n n m'
_symmetry_Int_Tables_number 58
loop_
_symmetry_equiv_pos_site_id
_symmetry_equiv_pos_as_xyz
1 'x+1/2, -y+1/2, z+1/2'
2 '-x+1/2, y+1/2, z+1/2'
3 'x, y, -z'
4 '-x, -y, -z'
5 '-x+1/2, y+1/2, -z+1/2'
6 'x+1/2, -y+1/2, -z+1/2'
7 '-x, -y, z'
8 'x, y, z'
loop_
_atom_type_symbol
_atom_type_oxidation_number
In0+ 0
Te0+ 0
loop_
_atom_site_label
_atom_site_type_symbol
_atom_site_symmetry_multiplicity
_atom_site_Wyckoff_symbol
_atom_site_fract_x
_atom_site_fract_y
_atom_site_fract_z
_atom_site_B_iso_or_equiv
_atom_site_occupancy
_atom_site_attached_hydrogens
In1 In0+ 4 g 0.033 0.153 0 . 1. 0
In2 In0+ 4 g 0.366 0.153 0 . 1. 0
In3 In0+ 4 g 0.7 0.153 0 . 1. 0
In4 In0+ 4 g 0.341 0.383 0 . 1. 0
Te1 Te0+ 4 g 0.197 0.081 0 . 1. 0
Te2 Te0+ 4 g 0.53 0.081 0 . 1. 0
#End of TTdata_640618-ICSD