
data_641589-ICSD
_database_code_ICSD 641589
_audit_creation_date 2012-08-01
_chemical_name_systematic 'Lanthanum nickel stannide (1/4/2)'
_chemical_formula_structural 'La Ni4 Sn2'
_chemical_formula_sum 'La1 Ni4 Sn2'
_chemical_name_structure_type Au4KSn2
_exptl_crystal_density_diffrn 8.57
_cell_length_a 7.766(3)
_cell_length_b 7.766(3)
_cell_length_c 7.851(3)
_cell_angle_alpha 90.
_cell_angle_beta 90.
_cell_angle_gamma 90.
_cell_volume 473.5
_cell_formula_units_Z 4
_symmetry_space_group_name_H-M 'I -4 c 2'
_symmetry_Int_Tables_number 120
loop_
_symmetry_equiv_pos_site_id
_symmetry_equiv_pos_as_xyz
1 'y, x, -z+1/2'
2 '-y, -x, -z+1/2'
3 'y, -x, -z'
4 '-y, x, -z'
5 'x, -y, z+1/2'
6 '-x, y, z+1/2'
7 '-x, -y, z'
8 'x, y, z'
9 'y+1/2, x+1/2, -z'
10 '-y+1/2, -x+1/2, -z'
11 'y+1/2, -x+1/2, -z+1/2'
12 '-y+1/2, x+1/2, -z+1/2'
13 'x+1/2, -y+1/2, z'
14 '-x+1/2, y+1/2, z'
15 '-x+1/2, -y+1/2, z+1/2'
16 'x+1/2, y+1/2, z+1/2'
loop_
_atom_type_symbol
_atom_type_oxidation_number
Ni0+ 0
La0+ 0
Sn0+ 0
loop_
_atom_site_label
_atom_site_type_symbol
_atom_site_symmetry_multiplicity
_atom_site_Wyckoff_symbol
_atom_site_fract_x
_atom_site_fract_y
_atom_site_fract_z
_atom_site_B_iso_or_equiv
_atom_site_occupancy
_atom_site_attached_hydrogens
Ni1 Ni0+ 16 i 0.145 0.158 0.085 . 1. 0
La1 La0+ 4 d 0 0.5 0 . 1. 0
Sn1 Sn0+ 8 e 0.356 0.356 0.25 . 1. 0
