
#(C) 2017 by FIZ Karlsruhe - Leibniz Institute for Information Infrastructure, and the U.S. Secretary of
#Commerce on behalf of the United States.  All rights reserved.
data_641743-ICSD
_database_code_ICSD 641743
_audit_creation_date 2013-08-01
_chemical_name_systematic 'Lanthanum rhodium silicide (1/3/2)'
_chemical_formula_structural 'La Rh3 Si2'
_chemical_formula_sum 'La1 Rh3 Si2'
_chemical_name_structure_type ErRh3Si2
_exptl_crystal_density_diffrn 8.44
_publ_section_title

;
Er Rh3 Si2and isotypes with an orthorhombic deformation superstructure of the
Ce Co3 B2 type
;
_publ_section_comment 'Cell and Type only determined'
loop_
_citation_id
_citation_journal_full
_citation_year
_citation_journal_volume
_citation_page_first
_citation_page_last
_citation_journal_id_ASTM
primary 'Acta Crystallographica, Section C: Crystal Structure Communications'
1988 44 221 226 ACSCEE
loop_
_publ_author_name
'Cenzual, K.'
'Chabot, B.'
'Parthe, E.'
_cell_length_a 7.145(2)
_cell_length_b 9.777(4)
_cell_length_c 5.611(2)
_cell_angle_alpha 90.
_cell_angle_beta 90.
_cell_angle_gamma 90.
_cell_volume 391.97
_cell_formula_units_Z 4
_symmetry_space_group_name_H-M 'I m m a'
_symmetry_Int_Tables_number 74
loop_
_symmetry_equiv_pos_site_id
_symmetry_equiv_pos_as_xyz
1 '-x, y+1/2, -z'
2 '-x, -y+1/2, z'
3 '-x, y, z'
4 '-x, -y, -z'
5 'x, -y+1/2, z'
6 'x, y+1/2, -z'
7 'x, -y, -z'
8 'x, y, z'
9 '-x+1/2, y, -z+1/2'
10 '-x+1/2, -y, z+1/2'
11 '-x+1/2, y+1/2, z+1/2'
12 '-x+1/2, -y+1/2, -z+1/2'
13 'x+1/2, -y, z+1/2'
14 'x+1/2, y, -z+1/2'
15 'x+1/2, -y+1/2, -z+1/2'
16 'x+1/2, y+1/2, z+1/2'
loop_
_atom_type_symbol
_atom_type_oxidation_number
La0+ 0
Rh0+ 0
Si0+ 0
loop_
_atom_site_label
_atom_site_type_symbol
_atom_site_symmetry_multiplicity
_atom_site_Wyckoff_symbol
_atom_site_fract_x
_atom_site_fract_y
_atom_site_fract_z
_atom_site_B_iso_or_equiv
_atom_site_occupancy
_atom_site_attached_hydrogens
La1 La0+ 4 e 0 0.25 0.71 . 1. 0
Rh1 Rh0+ 8 f 0.285 0 0 . 1. 0
Rh2 Rh0+ 4 c 0.25 0.25 0.25 . 1. 0
Si1 Si0+ 8 h 0 0.079 0.196 . 1. 0
#End of TTdata_641743-ICSD