
#(C) 2017 by FIZ Karlsruhe - Leibniz Institute for Information Infrastructure, and the U.S. Secretary of
#Commerce on behalf of the United States.  All rights reserved.
data_641808-ICSD
_database_code_ICSD 641808
_audit_creation_date 2010-02-01
_chemical_name_systematic 'Lanthanum(IV) sulfide'
_chemical_formula_structural 'La S2'
_chemical_formula_sum 'La1 S2'
_chemical_name_structure_type PrOI
_exptl_crystal_density_diffrn 5.21
_publ_section_title

;
Interconnection between the geometry and the structure of substance elementary
cells in nonorganic chemistry
;
_publ_section_comment 'Cell and Type only determined'
loop_
_citation_id
_citation_journal_full
_citation_year
_citation_journal_volume
_citation_page_first
_citation_page_last
_citation_journal_id_ASTM
primary 'Doklady Akademii Nauk SSSR' 1979 246 1162 1165 DANKAS
loop_
_publ_author_name
'Eliseev, A.A.'
'Kuz'micheva, G.M.'
_cell_length_a 3.975
_cell_length_b 3.975
_cell_length_c 8.184
_cell_angle_alpha 90.
_cell_angle_beta 90.
_cell_angle_gamma 90.
_cell_volume 129.31
_cell_formula_units_Z 2
_symmetry_space_group_name_H-M 'P 4/n m m Z'
_symmetry_Int_Tables_number 129
loop_
_symmetry_equiv_pos_site_id
_symmetry_equiv_pos_as_xyz
1 'y+1/2, x+1/2, -z'
2 '-y, x+1/2, -z'
3 'y+1/2, -x, -z'
4 '-y, -x, -z'
5 'x+1/2, y+1/2, -z'
6 '-x, y+1/2, -z'
7 'x+1/2, -y, -z'
8 '-x, -y, -z'
9 '-y+1/2, -x+1/2, z'
10 'y, -x+1/2, z'
11 '-y+1/2, x, z'
12 'y, x, z'
13 '-x+1/2, -y+1/2, z'
14 'x, -y+1/2, z'
15 '-x+1/2, y, z'
16 'x, y, z'
loop_
_atom_type_symbol
_atom_type_oxidation_number
S2- -2
La4+ 4
S2- -2
loop_
_atom_site_label
_atom_site_type_symbol
_atom_site_symmetry_multiplicity
_atom_site_Wyckoff_symbol
_atom_site_fract_x
_atom_site_fract_y
_atom_site_fract_z
_atom_site_B_iso_or_equiv
_atom_site_occupancy
_atom_site_attached_hydrogens
S1 S2- 2 a 0.75 0.25 0 . 1. 0
La1 La4+ 2 c 0.25 0.25 0.27 . 1. 0
S2 S2- 2 c 0.25 0.25 0.64 . 1. 0
#End of TTdata_641808-ICSD