
#(C) 2017 by FIZ Karlsruhe - Leibniz Institute for Information Infrastructure, and the U.S. Secretary of
#Commerce on behalf of the United States.  All rights reserved.
data_642069-ICSD
_database_code_ICSD 642069
_audit_creation_date 2013-08-01
_chemical_name_systematic 'Lanthanum thallium (3/5)'
_chemical_formula_structural 'La3 Tl5'
_chemical_formula_sum 'La3 Tl5'
_chemical_name_structure_type Pu3Pd5
_exptl_crystal_density_diffrn 10.18
_publ_section_title 'The R3 In6 and R3 Tl5 phases of the rare earths'
_publ_section_comment 'Cell and Type only determined'
loop_
_citation_id
_citation_journal_full
_citation_year
_citation_journal_volume
_citation_page_first
_citation_page_last
_citation_journal_id_ASTM
primary 'Journal of the Less-Common Metals' 1981 81 45 53 JCOMAH
loop_
_publ_author_name
'Delfino, S.'
'Saccone, A.'
'Mazzone, D.'
'Ferro, R.'
_cell_length_a 10.39
_cell_length_b 8.4
_cell_length_c 10.76
_cell_angle_alpha 90.
_cell_angle_beta 90.
_cell_angle_gamma 90.
_cell_volume 939.09
_cell_formula_units_Z 4
_symmetry_space_group_name_H-M 'C m c m'
_symmetry_Int_Tables_number 63
loop_
_symmetry_equiv_pos_site_id
_symmetry_equiv_pos_as_xyz
1 '-x, y, -z+1/2'
2 '-x, -y, z+1/2'
3 '-x, y, z'
4 '-x, -y, -z'
5 'x, -y, z+1/2'
6 'x, y, -z+1/2'
7 'x, -y, -z'
8 'x, y, z'
9 '-x+1/2, y+1/2, -z+1/2'
10 '-x+1/2, -y+1/2, z+1/2'
11 '-x+1/2, y+1/2, z'
12 '-x+1/2, -y+1/2, -z'
13 'x+1/2, -y+1/2, z+1/2'
14 'x+1/2, y+1/2, -z+1/2'
15 'x+1/2, -y+1/2, -z'
16 'x+1/2, y+1/2, z'
loop_
_atom_type_symbol
_atom_type_oxidation_number
La0+ 0
Tl0+ 0
loop_
_atom_site_label
_atom_site_type_symbol
_atom_site_symmetry_multiplicity
_atom_site_Wyckoff_symbol
_atom_site_fract_x
_atom_site_fract_y
_atom_site_fract_z
_atom_site_B_iso_or_equiv
_atom_site_occupancy
_atom_site_attached_hydrogens
La1 La0+ 4 c 0 0.628 0.25 . 1. 0
La2 La0+ 8 e 0.204 0 0 . 1. 0
Tl1 Tl0+ 4 c 0 0.022 0.25 . 1. 0
Tl2 Tl0+ 8 f 0 0.312 0.45 . 1. 0
Tl3 Tl0+ 8 g 0.216 0.285 0.25 . 1. 0
#End of TTdata_642069-ICSD