
data_643301-ICSD
_database_code_ICSD 643301
_audit_creation_date 2008-07-07
_audit_update_record 2012-02-01
_chemical_name_systematic 'Manganese palladium (1/3)'
_chemical_formula_structural 'Mn Pd3'
_chemical_formula_sum 'Mn1 Pd3'
_chemical_name_structure_type Au3Cd
_exptl_crystal_density_diffrn 10.47
_cell_length_a 3.913(3)
_cell_length_b 3.913(3)
_cell_length_c 15.496(8)
_cell_angle_alpha 90.
_cell_angle_beta 90.
_cell_angle_gamma 90.
_cell_volume 237.27
_cell_formula_units_Z 4
_symmetry_space_group_name_H-M 'I 4 m m'
_symmetry_Int_Tables_number 107
_refine_ls_R_factor_all 0.061
loop_
_symmetry_equiv_pos_site_id
_symmetry_equiv_pos_as_xyz
1 '-y, x, z'
2 'y, -x, z'
3 '-y, -x, z'
4 'y, x, z'
5 'x, -y, z'
6 '-x, y, z'
7 '-x, -y, z'
8 'x, y, z'
9 '-y+1/2, x+1/2, z+1/2'
10 'y+1/2, -x+1/2, z+1/2'
11 '-y+1/2, -x+1/2, z+1/2'
12 'y+1/2, x+1/2, z+1/2'
13 'x+1/2, -y+1/2, z+1/2'
14 '-x+1/2, y+1/2, z+1/2'
15 '-x+1/2, -y+1/2, z+1/2'
16 'x+1/2, y+1/2, z+1/2'
loop_
_atom_type_symbol
_atom_type_oxidation_number
Mn0+ 0
Pd0+ 0
loop_
_atom_site_label
_atom_site_type_symbol
_atom_site_symmetry_multiplicity
_atom_site_Wyckoff_symbol
_atom_site_fract_x
_atom_site_fract_y
_atom_site_fract_z
_atom_site_B_iso_or_equiv
_atom_site_occupancy
_atom_site_attached_hydrogens
Mn1 Mn0+ 2 a 0 0 0.0003 .65 1 0
Mn2 Mn0+ 2 a 0 0 0.2496 .65 1 0
Pd1 Pd0+ 2 a 0 0 0.4995 .41 1 0
Pd2 Pd0+ 2 a 0 0 0.7505 .41 1 0
Pd3 Pd0+ 4 b 0 0.5 0.125 .49 1 0
Pd4 Pd0+ 4 b 0 0.5 0.375 .49 1 0
