
#(C) 2017 by FIZ Karlsruhe - Leibniz Institute for Information Infrastructure, and the U.S. Secretary of
#Commerce on behalf of the United States.  All rights reserved.
data_644181-ICSD
_database_code_ICSD 644181
_audit_creation_date 2012-08-01
_chemical_name_systematic 'Rubidium molybdenum selenide (1/3/3)'
_chemical_formula_structural 'Rb Mo3 Se3'
_chemical_formula_sum 'Mo3 Rb1 Se3'
_chemical_name_structure_type Fe3TlTe3
_exptl_crystal_density_diffrn 6.08
_publ_section_title

;
Labilite des cations dans les chalcogenures ternaires de molybdene: voies
d'acces a de nouvelles syntheses
;
_publ_section_comment 'Cell and Type only determined'
loop_
_citation_id
_citation_journal_full
_citation_year
_citation_journal_volume
_citation_page_first
_citation_page_last
_citation_journal_id_ASTM
primary 'Revue de Chimie Minerale' 1984 21 509 536 RVCMA8
loop_
_publ_author_name
'Potel, M.'
'Gougeon, P.'
'Chevrel, R.'
'Sergent, M.'
_cell_length_a 9.26
_cell_length_b 9.26
_cell_length_c 4.49
_cell_angle_alpha 90.
_cell_angle_beta 90.
_cell_angle_gamma 120.
_cell_volume 333.43
_cell_formula_units_Z 2
_symmetry_space_group_name_H-M 'P 63/m'
_symmetry_Int_Tables_number 176
loop_
_symmetry_equiv_pos_site_id
_symmetry_equiv_pos_as_xyz
1 '-x+y, -x, -z+1/2'
2 '-y, x-y, -z+1/2'
3 'x, y, -z+1/2'
4 'x-y, x, -z'
5 'y, -x+y, -z'
6 '-x, -y, -z'
7 'x-y, x, z+1/2'
8 'y, -x+y, z+1/2'
9 '-x, -y, z+1/2'
10 '-x+y, -x, z'
11 '-y, x-y, z'
12 'x, y, z'
loop_
_atom_type_symbol
_atom_type_oxidation_number
Rb1+ 1
Mo1+ 1.67
Se2- -2
loop_
_atom_site_label
_atom_site_type_symbol
_atom_site_symmetry_multiplicity
_atom_site_Wyckoff_symbol
_atom_site_fract_x
_atom_site_fract_y
_atom_site_fract_z
_atom_site_B_iso_or_equiv
_atom_site_occupancy
_atom_site_attached_hydrogens
Rb1 Rb1+ 2 c 0.3333 0.6667 0.25 . 1. 0
Mo1 Mo1+ 6 h 0.185 0.155 0.25 . 1. 0
Se1 Se2- 6 h 0.065 0.365 0.25 . 1. 0
#End of TTdata_644181-ICSD