
#(C) 2017 by FIZ Karlsruhe - Leibniz Institute for Information Infrastructure, and the U.S. Secretary of
#Commerce on behalf of the United States.  All rights reserved.
data_644381-ICSD
_database_code_ICSD 644381
_audit_creation_date 2012-08-01
_chemical_name_systematic 'Thallium molybdenum selenide (1/3/3)'
_chemical_formula_structural 'Tl Mo3 Se3'
_chemical_formula_sum 'Mo3 Se3 Tl1'
_chemical_name_structure_type Fe3TlTe3
_exptl_crystal_density_diffrn 7.77
_publ_section_title

;
Labilite des cations dans les chalcogenures ternaires de molybdene: voies
d'acces a de nouvelles syntheses
;
_publ_section_comment 'Cell and Type only determined'
loop_
_citation_id
_citation_journal_full
_citation_year
_citation_journal_volume
_citation_page_first
_citation_page_last
_citation_journal_id_ASTM
primary 'Revue de Chimie Minerale' 1984 21 509 536 RVCMA8
loop_
_publ_author_name
'Potel, M.'
'Gougeon, P.'
'Chevrel, R.'
'Sergent, M.'
_cell_length_a 8.94
_cell_length_b 8.94
_cell_length_c 4.5
_cell_angle_alpha 90.
_cell_angle_beta 90.
_cell_angle_gamma 120.
_cell_volume 311.47
_cell_formula_units_Z 2
_symmetry_space_group_name_H-M 'P 63/m'
_symmetry_Int_Tables_number 176
loop_
_symmetry_equiv_pos_site_id
_symmetry_equiv_pos_as_xyz
1 '-x+y, -x, -z+1/2'
2 '-y, x-y, -z+1/2'
3 'x, y, -z+1/2'
4 'x-y, x, -z'
5 'y, -x+y, -z'
6 '-x, -y, -z'
7 'x-y, x, z+1/2'
8 'y, -x+y, z+1/2'
9 '-x, -y, z+1/2'
10 '-x+y, -x, z'
11 '-y, x-y, z'
12 'x, y, z'
loop_
_atom_type_symbol
_atom_type_oxidation_number
Tl0+ 0
Mo0+ 0
Se0+ 0
loop_
_atom_site_label
_atom_site_type_symbol
_atom_site_symmetry_multiplicity
_atom_site_Wyckoff_symbol
_atom_site_fract_x
_atom_site_fract_y
_atom_site_fract_z
_atom_site_B_iso_or_equiv
_atom_site_occupancy
_atom_site_attached_hydrogens
Tl1 Tl0+ 2 c 0.3333 0.6667 0.25 . 1. 0
Mo1 Mo0+ 6 h 0.186 0.153 0.25 . 1. 0
Se1 Se0+ 6 h 0.066 0.366 0.25 . 1. 0
#End of TTdata_644381-ICSD