
#(C) 2017 by FIZ Karlsruhe - Leibniz Institute for Information Infrastructure, and the U.S. Secretary of
#Commerce on behalf of the United States.  All rights reserved.
data_645173-ICSD
_database_code_ICSD 645173
_audit_creation_date 2013-08-01
_chemical_name_systematic 'Niobium rhodium phosphide (1/1/1)'
_chemical_formula_structural 'Nb Rh P'
_chemical_formula_sum 'Nb1 P1 Rh1'
_chemical_name_structure_type TiNiSi-MgSrSi
_exptl_crystal_density_diffrn 8.82
_publ_section_title

;
Superconductivity and crystal structure of a new class of ternary transition
metal phosphides T T'P (T =Zr, Nb, Ta and T'=Ru, Rh)
;
_publ_section_comment 'Cell and Type only determined'
loop_
_citation_id
_citation_journal_full
_citation_year
_citation_journal_volume
_citation_page_first
_citation_page_last
_citation_journal_id_ASTM
primary 'Journal of the Less-Common Metals' 1983 92 177 183 JCOMAH
loop_
_publ_author_name
'Mueller, R.'
'Shelton, R.N.'
'Richardson, J.W.jr.'
'Jacobson, R.A.'
_cell_length_a 6.306(1)
_cell_length_b 3.737(1)
_cell_length_c 7.187(1)
_cell_angle_alpha 90.
_cell_angle_beta 90.
_cell_angle_gamma 90.
_cell_volume 169.37
_cell_formula_units_Z 4
_symmetry_space_group_name_H-M 'P n m a'
_symmetry_Int_Tables_number 62
loop_
_symmetry_equiv_pos_site_id
_symmetry_equiv_pos_as_xyz
1 'x+1/2, y, -z+1/2'
2 'x, -y+1/2, z'
3 '-x+1/2, y+1/2, z+1/2'
4 '-x, -y, -z'
5 '-x+1/2, -y, z+1/2'
6 '-x, y+1/2, -z'
7 'x+1/2, -y+1/2, -z+1/2'
8 'x, y, z'
loop_
_atom_type_symbol
_atom_type_oxidation_number
Nb0+ 0
Rh0+ 0
P0+ 0
loop_
_atom_site_label
_atom_site_type_symbol
_atom_site_symmetry_multiplicity
_atom_site_Wyckoff_symbol
_atom_site_fract_x
_atom_site_fract_y
_atom_site_fract_z
_atom_site_B_iso_or_equiv
_atom_site_occupancy
_atom_site_attached_hydrogens
Nb1 Nb0+ 4 c 0.026 0.25 0.174 . 1. 0
Rh1 Rh0+ 4 c 0.146 0.25 0.562 . 1. 0
P1 P0+ 4 c 0.769 0.25 0.628 . 1. 0
#End of TTdata_645173-ICSD