
#(C) 2017 by FIZ Karlsruhe - Leibniz Institute for Information Infrastructure, and the U.S. Secretary of
#Commerce on behalf of the United States.  All rights reserved.
data_645339-ICSD
_database_code_ICSD 645339
_audit_creation_date 2012-08-01
_chemical_name_systematic 'Vanadium niobium sulfide (1/4/8)'
_chemical_formula_structural 'V Nb4 S8'
_chemical_formula_sum 'Nb4 S8 V1'
_chemical_name_structure_type MnNb4S8
_exptl_crystal_density_diffrn 4.88
_publ_section_title

;
Etude generale de systemes M X Nb S2 (M element de transition de la premiere
periode)
;
_publ_section_comment 'Cell and Type only determined'
loop_
_citation_id
_citation_journal_full
_citation_year
_citation_journal_volume
_citation_page_first
_citation_page_last
_citation_journal_id_ASTM
primary 'Bulletin de la Societe Chimique de France (Vol=Year)' 1971 1971 2019
2022 BSCFAS
loop_
_publ_author_name
'Rouxel, J.'
'le Blanc, A.'
'Royer, A.'
_cell_length_a 6.641
_cell_length_b 6.641
_cell_length_c 12.102
_cell_angle_alpha 90.
_cell_angle_beta 90.
_cell_angle_gamma 120.
_cell_volume 462.23
_cell_formula_units_Z 2
_symmetry_space_group_name_H-M 'P 63/m m c'
_symmetry_Int_Tables_number 194
loop_
_symmetry_equiv_pos_site_id
_symmetry_equiv_pos_as_xyz
1 'x, x-y, -z+1/2'
2 '-x+y, y, -z+1/2'
3 '-y, -x, -z+1/2'
4 '-x+y, -x, -z+1/2'
5 '-y, x-y, -z+1/2'
6 'x, y, -z+1/2'
7 '-x, -x+y, z+1/2'
8 'x-y, -y, z+1/2'
9 'y, x, z+1/2'
10 'x-y, x, z+1/2'
11 'y, -x+y, z+1/2'
12 '-x, -y, z+1/2'
13 '-x, -x+y, -z'
14 'x-y, -y, -z'
15 'y, x, -z'
16 'x-y, x, -z'
17 'y, -x+y, -z'
18 '-x, -y, -z'
19 'x, x-y, z'
20 '-x+y, y, z'
21 '-y, -x, z'
22 '-x+y, -x, z'
23 '-y, x-y, z'
24 'x, y, z'
loop_
_atom_type_symbol
_atom_type_oxidation_number
V3+ 3
Nb3+ 3.25
S2- -2
loop_
_atom_site_label
_atom_site_type_symbol
_atom_site_symmetry_multiplicity
_atom_site_Wyckoff_symbol
_atom_site_fract_x
_atom_site_fract_y
_atom_site_fract_z
_atom_site_B_iso_or_equiv
_atom_site_occupancy
_atom_site_attached_hydrogens
V1 V3+ 2 a 0 0 0 . 1. 0
Nb1 Nb3+ 2 b 0 0 0.25 . 1. 0
Nb2 Nb3+ 6 h 0.5 0 0.25 . 1. 0
S1 S2- 4 f 0.3333 0.6667 0.625 . 1. 0
S2 S2- 12 k 0.167 0.334 0.125 . 1. 0
#End of TTdata_645339-ICSD