
#(C) 2017 by FIZ Karlsruhe - Leibniz Institute for Information Infrastructure, and the U.S. Secretary of
#Commerce on behalf of the United States.  All rights reserved.
data_645416-ICSD
_database_code_ICSD 645416
_audit_creation_date 2012-08-01
_chemical_name_systematic 'Niobium silicide (3/1)'
_chemical_formula_structural 'Nb3 Si'
_chemical_formula_sum 'Nb3 Si1'
_chemical_name_structure_type Ni3P
_exptl_crystal_density_diffrn 7.3
_publ_section_title

;
New high-pressure phases of Nb3 Si produced by recrystallization of metastable
sputter deposits
;
_publ_section_comment 'Cell and Type only determined'
loop_
_citation_id
_citation_journal_full
_citation_year
_citation_journal_volume
_citation_page_first
_citation_page_last
_citation_journal_id_ASTM
primary 'Journal of Applied Physics' 1978 49 1143 1148 JAPIAU
loop_
_publ_author_name
'Waterstrat, R.M.'
'Muller, J.'
'Dahlgren, S.D.'
'Willis, J.O.'
_cell_length_a 10.39(2)
_cell_length_b 10.39(2)
_cell_length_c 5.17(1)
_cell_angle_alpha 90.
_cell_angle_beta 90.
_cell_angle_gamma 90.
_cell_volume 558.11
_cell_formula_units_Z 8
_symmetry_space_group_name_H-M 'I -4'
_symmetry_Int_Tables_number 82
loop_
_symmetry_equiv_pos_site_id
_symmetry_equiv_pos_as_xyz
1 '-y, x, -z'
2 'y, -x, -z'
3 '-x, -y, z'
4 'x, y, z'
5 '-y+1/2, x+1/2, -z+1/2'
6 'y+1/2, -x+1/2, -z+1/2'
7 '-x+1/2, -y+1/2, z+1/2'
8 'x+1/2, y+1/2, z+1/2'
loop_
_atom_type_symbol
_atom_type_oxidation_number
Nb0+ 0
Si0+ 0
loop_
_atom_site_label
_atom_site_type_symbol
_atom_site_symmetry_multiplicity
_atom_site_Wyckoff_symbol
_atom_site_fract_x
_atom_site_fract_y
_atom_site_fract_z
_atom_site_B_iso_or_equiv
_atom_site_occupancy
_atom_site_attached_hydrogens
Nb1 Nb0+ 8 g 0.078 0.106 0.244 . 1. 0
Nb2 Nb0+ 8 g 0.361 0.031 0.998 . 1. 0
Nb3 Nb0+ 8 g 0.166 0.22 0.756 . 1. 0
Si1 Si0+ 8 g 0.292 0.044 0.494 . 1. 0
#End of TTdata_645416-ICSD