
#(C) 2017 by FIZ Karlsruhe - Leibniz Institute for Information Infrastructure.  All rights reserved.
data_64625-ICSD
_database_code_ICSD 64625
_audit_creation_date 1989-06-19
_audit_update_record 1991-06-25
_chemical_name_systematic 'Potassium phosphide (4/3)'
_chemical_formula_structural 'K4 P3'
_chemical_formula_sum 'K4 P3'
_exptl_crystal_density_diffrn 1.98
_publ_section_title 'K4 P3, eine Verbindung mit dem Radikalanion (P3)4-.'
loop_
_citation_id
_citation_journal_full
_citation_year
_citation_journal_volume
_citation_page_first
_citation_page_last
_citation_journal_id_ASTM
primary 'Angewandte Chemie (German Edition)' 1989 101 98 99 ANCEAD
loop_
_publ_author_name
'von Schnering, H.G.'
'Hartweg, M.'
'Hartweg, U.'
'Hoenle, W.'
_cell_length_a 5.049(1)
_cell_length_b 11.197(2)
_cell_length_c 14.788(3)
_cell_angle_alpha 90.
_cell_angle_beta 90.
_cell_angle_gamma 90.
_cell_volume 836.02
_cell_formula_units_Z 4
_symmetry_space_group_name_H-M 'C m c m'
_symmetry_Int_Tables_number 63
_refine_ls_R_factor_all 0.042
loop_
_symmetry_equiv_pos_site_id
_symmetry_equiv_pos_as_xyz
1 '-x, y, -z+1/2'
2 '-x, -y, z+1/2'
3 '-x, y, z'
4 '-x, -y, -z'
5 'x, -y, z+1/2'
6 'x, y, -z+1/2'
7 'x, -y, -z'
8 'x, y, z'
9 '-x+1/2, y+1/2, -z+1/2'
10 '-x+1/2, -y+1/2, z+1/2'
11 '-x+1/2, y+1/2, z'
12 '-x+1/2, -y+1/2, -z'
13 'x+1/2, -y+1/2, z+1/2'
14 'x+1/2, y+1/2, -z+1/2'
15 'x+1/2, -y+1/2, -z'
16 'x+1/2, y+1/2, z'
loop_
_atom_type_symbol
_atom_type_oxidation_number
K0+ 0
P0+ 0
loop_
_atom_site_label
_atom_site_type_symbol
_atom_site_symmetry_multiplicity
_atom_site_Wyckoff_symbol
_atom_site_fract_x
_atom_site_fract_y
_atom_site_fract_z
_atom_site_B_iso_or_equiv
_atom_site_occupancy
_atom_site_attached_hydrogens
K1 K0+ 4 b 0 0.5 0.5 . 1. 0
K2 K0+ 4 c 0 0.4805(1) 0.25 . 1. 0
K3 K0+ 8 f 0 0.1922(1) 0.38963(9) . 1. 0
P1 P0+ 4 c 0 0.7844(2) 0.25 . 1. 0
P2 P0+ 8 f 0 0.8847(1) 0.12343(9) . 1. 0
loop_
_atom_site_aniso_label
_atom_site_aniso_type_symbol
_atom_site_aniso_U_11
_atom_site_aniso_U_22
_atom_site_aniso_U_33
_atom_site_aniso_U_12
_atom_site_aniso_U_13
_atom_site_aniso_U_23
K1 K0+ 0.0278(13) 0.1247(25) 0.0508(15) 0 0 -.0480(16)
K2 K0+ 0.0246(10) 0.0241(10) 0.0275(10) 0 0 0
K3 K0+ 0.0320(8) 0.0271(7) 0.0398(7) 0 0 0.0034(6)
P1 P0+ 0.0260(12) 0.021(1) 0.0242(10) 0 0 0
P2 P0+ 0.0215(8) 0.0316(8) 0.0226(8) 0 0 0.0037(7)
#End of TTdata_64625-ICSD