
#(C) 2017 by FIZ Karlsruhe - Leibniz Institute for Information Infrastructure, and the U.S. Secretary of
#Commerce on behalf of the United States.  All rights reserved.
data_646389-ICSD
_database_code_ICSD 646389
_audit_creation_date 2012-08-01
_chemical_name_systematic 'Nickel titanium sulfide (1/4/8)'
_chemical_formula_structural 'Ni Ti4 S8'
_chemical_formula_sum 'Ni1 S8 Ti4'
_chemical_name_structure_type FeTi4S8
_exptl_crystal_density_diffrn 3.73
_publ_section_title

;
Chimie minerale. Etude de systemes Mx-TiS2(M metal alcalin ou element de
transition de la premiere periode, x=0-1): Les surstructures M Ti4 S8 et M3
Ti4 S8 (M = Fe, Co, Ni)
;
_publ_section_comment 'Cell and Type only determined'
loop_
_citation_id
_citation_journal_full
_citation_year
_citation_journal_volume
_citation_page_first
_citation_page_last
_citation_journal_id_ASTM
primary

;
Comptes Rendus Hebdomadaires des Seances de l'Academie des Sciences, Serie C,
Sciences Chimiques (1966-)
; 1970 271 998 1001 CHDCAQ
loop_
_publ_author_name
'Danot, M.'
'Rouxel, J.'
_cell_length_a 11.78
_cell_length_b 6.79
_cell_length_c 11.28
_cell_angle_alpha 90.
_cell_angle_beta 90.3
_cell_angle_gamma 90.
_cell_volume 902.23
_cell_formula_units_Z 4
_symmetry_space_group_name_H-M 'C 1 2/m 1'
_symmetry_Int_Tables_number 12
loop_
_symmetry_equiv_pos_site_id
_symmetry_equiv_pos_as_xyz
1 '-x, y, -z'
2 '-x, -y, -z'
3 'x, -y, z'
4 'x, y, z'
5 '-x+1/2, y+1/2, -z'
6 '-x+1/2, -y+1/2, -z'
7 'x+1/2, -y+1/2, z'
8 'x+1/2, y+1/2, z'
loop_
_atom_type_symbol
_atom_type_oxidation_number
Ni2+ 2
Ti4+ 4
Ti3+ 3
S2- -2
loop_
_atom_site_label
_atom_site_type_symbol
_atom_site_symmetry_multiplicity
_atom_site_Wyckoff_symbol
_atom_site_fract_x
_atom_site_fract_y
_atom_site_fract_z
_atom_site_B_iso_or_equiv
_atom_site_occupancy
_atom_site_attached_hydrogens
Ni1 Ni2+ 2 a 0 0 0 . 1. 0
Ni2 Ni2+ 2 d 0 0.5 0.5 . 1. 0
Ti1 Ti4+ 4 i 0 0 0.25 . 1. 0
Ti2 Ti4+ 4 i 0.5 0 0.25 . 1. 0
Ti3 Ti3+ 8 j 0.25 0.75 0.25 . 1. 0
S1 S2- 4 i 0.167 0 0.125 . 1. 0
S2 S2- 4 i 0.167 0 0.625 . 1. 0
S3 S2- 4 i 0.333 0 0.375 . 1. 0
S4 S2- 4 i 0.333 0 0.875 . 1. 0
S5 S2- 8 j 0.063 0.25 0.375 . 1. 0
S6 S2- 8 j 0.063 0.25 0.875 . 1. 0
#End of TTdata_646389-ICSD