
#(C) 2017 by FIZ Karlsruhe - Leibniz Institute for Information Infrastructure, and the U.S. Secretary of
#Commerce on behalf of the United States.  All rights reserved.
data_647349-ICSD
_database_code_ICSD 647349
_audit_creation_date 2012-08-01
_chemical_name_systematic 'Rhenium dioxide'
_chemical_formula_structural 'Re O2'
_chemical_formula_sum 'O2 Re1'
_exptl_crystal_density_diffrn 11.28
_publ_section_title 'Sur les structures cristallines du dioxyde de rhenium'
_publ_section_comment 'Cell and Type only determined'
loop_
_citation_id
_citation_journal_full
_citation_year
_citation_journal_volume
_citation_page_first
_citation_page_last
_citation_journal_id_ASTM
primary

;
Comptes Rendus Hebdomadaires des Seances de l'Academie des Sciences (1884 -
1965)
; 1964 259 2109 2112 COREAF
loop_
_publ_author_name
'Tribalat, S.'
'Jungfleisch, M.-L.'
'Delafosse, D.'
_cell_length_a 5.58(2)
_cell_length_b 4.81(2)
_cell_length_c 5.58(2)
_cell_angle_alpha 90.
_cell_angle_beta 120.9(1)
_cell_angle_gamma 90.
_cell_volume 128.51
_cell_formula_units_Z 4
_symmetry_space_group_name_H-M 'P 1 21/c 1'
_symmetry_Int_Tables_number 14
loop_
_symmetry_equiv_pos_site_id
_symmetry_equiv_pos_as_xyz
1 'x, -y+1/2, z+1/2'
2 '-x, -y, -z'
3 '-x, y+1/2, -z+1/2'
4 'x, y, z'
loop_
_atom_type_symbol
_atom_type_oxidation_number
Re4+ 4
O2- -2
loop_
_atom_site_label
_atom_site_type_symbol
_atom_site_symmetry_multiplicity
_atom_site_Wyckoff_symbol
_atom_site_fract_x
_atom_site_fract_y
_atom_site_fract_z
_atom_site_B_iso_or_equiv
_atom_site_occupancy
_atom_site_attached_hydrogens
Re1 Re4+ 4 e 0.239 0.979 0.026 . 1. 0
O1 O2- 4 e 0.106 0.212 0.209 . 1. 0
O2 O2- 4 e 0.401 0.703 0.299 . 1. 0
#End of TTdata_647349-ICSD