
#(C) 2017 by FIZ Karlsruhe - Leibniz Institute for Information Infrastructure, and the U.S. Secretary of
#Commerce on behalf of the United States.  All rights reserved.
data_648027-ICSD
_database_code_ICSD 648027
_audit_creation_date 2013-08-01
_chemical_name_systematic 'Ruthenium phosphorus selenide (1/1/1)'
_chemical_formula_structural 'Ru P Se'
_chemical_formula_sum 'P1 Ru1 Se1'
_chemical_name_structure_type FeAsS-CoSb2
_exptl_crystal_density_diffrn 7.14
_publ_section_title 'New semiconducting arsenopyrite - type compounds'
_publ_section_comment 'Cell and Type only determined'
loop_
_citation_id
_citation_journal_full
_citation_year
_citation_journal_volume
_citation_page_first
_citation_page_last
_citation_journal_id_ASTM
primary 'Nature (London)' 1964 201 381 382 NATUAS
loop_
_publ_author_name
'Hulliger, F.'
_cell_length_a 5.97
_cell_length_b 5.92
_cell_length_c 5.98
_cell_angle_alpha 90.
_cell_angle_beta 111.8
_cell_angle_gamma 90.
_cell_volume 196.23
_cell_formula_units_Z 4
_symmetry_space_group_name_H-M 'P 1 21/c 1'
_symmetry_Int_Tables_number 14
loop_
_symmetry_equiv_pos_site_id
_symmetry_equiv_pos_as_xyz
1 'x, -y+1/2, z+1/2'
2 '-x, -y, -z'
3 '-x, y+1/2, -z+1/2'
4 'x, y, z'
loop_
_atom_type_symbol
_atom_type_oxidation_number
Ru3+ 3
Se1- -1
P2- -2
loop_
_atom_site_label
_atom_site_type_symbol
_atom_site_symmetry_multiplicity
_atom_site_Wyckoff_symbol
_atom_site_fract_x
_atom_site_fract_y
_atom_site_fract_z
_atom_site_B_iso_or_equiv
_atom_site_occupancy
_atom_site_attached_hydrogens
Ru1 Ru3+ 4 e 0.273 0.004 0.281 . 1. 0
Se1 Se1- 4 e 0.344 0.369 0.172 . 1. 0
P1 P2- 4 e 0.149 0.629 0.364 . 1. 0
#End of TTdata_648027-ICSD