
#(C) 2017 by FIZ Karlsruhe - Leibniz Institute for Information Infrastructure, and the U.S. Secretary of
#Commerce on behalf of the United States.  All rights reserved.
data_648275-ICSD
_database_code_ICSD 648275
_audit_creation_date 2012-08-01
_chemical_name_systematic 'Vanadium phosphide (4/3)'
_chemical_formula_structural 'V4 P3'
_chemical_formula_sum 'P3 V4'
_chemical_name_structure_type Nb4As3
_exptl_crystal_density_diffrn 5.28
_publ_section_title 'Roentgenographische Untersuchungen im Dreistoff V-P-C'
_publ_section_comment 'Cell and Type only determined'
loop_
_citation_id
_citation_journal_full
_citation_year
_citation_journal_volume
_citation_page_first
_citation_page_last
_citation_journal_id_ASTM
primary 'Monatshefte fuer Chemie' 1973 104 48 56 MOCMB7
loop_
_publ_author_name
'Boller, H.'
_cell_length_a 3.261
_cell_length_b 13.23
_cell_length_c 17.3
_cell_angle_alpha 90.
_cell_angle_beta 90.
_cell_angle_gamma 90.
_cell_volume 746.37
_cell_formula_units_Z 8
_symmetry_space_group_name_H-M 'C m c m'
_symmetry_Int_Tables_number 63
loop_
_symmetry_equiv_pos_site_id
_symmetry_equiv_pos_as_xyz
1 '-x, y, -z+1/2'
2 '-x, -y, z+1/2'
3 '-x, y, z'
4 '-x, -y, -z'
5 'x, -y, z+1/2'
6 'x, y, -z+1/2'
7 'x, -y, -z'
8 'x, y, z'
9 '-x+1/2, y+1/2, -z+1/2'
10 '-x+1/2, -y+1/2, z+1/2'
11 '-x+1/2, y+1/2, z'
12 '-x+1/2, -y+1/2, -z'
13 'x+1/2, -y+1/2, z+1/2'
14 'x+1/2, y+1/2, -z+1/2'
15 'x+1/2, -y+1/2, -z'
16 'x+1/2, y+1/2, z'
loop_
_atom_type_symbol
_atom_type_oxidation_number
V2+ 2.25
P3- -3
loop_
_atom_site_label
_atom_site_type_symbol
_atom_site_symmetry_multiplicity
_atom_site_Wyckoff_symbol
_atom_site_fract_x
_atom_site_fract_y
_atom_site_fract_z
_atom_site_B_iso_or_equiv
_atom_site_occupancy
_atom_site_attached_hydrogens
V1 V2+ 8 f 0 0.262 0.838 . 1. 0
V2 V2+ 8 f 0 0.466 0.88 . 1. 0
V3 V2+ 8 f 0 0.332 0.028 . 1. 0
V4 V2+ 4 a 0 0 0 . 1. 0
V5 V2+ 4 c 0 0.947 0.25 . 1. 0
P1 P3- 8 f 0 0.098 0.882 . 1. 0
P2 P3- 8 f 0 0.158 0.077 . 1. 0
P3 P3- 4 c 0 0.308 0.25 . 1. 0
P4 P3- 4 c 0 0.588 0.25 . 1. 0
#End of TTdata_648275-ICSD