
#(C) 2017 by FIZ Karlsruhe - Leibniz Institute for Information Infrastructure, and the U.S. Secretary of
#Commerce on behalf of the United States.  All rights reserved.
data_648232-ICSD
_database_code_ICSD 648232
_audit_creation_date 2013-08-01
_chemical_name_systematic 'Titanium phosphide (1/2)'
_chemical_formula_structural 'Ti P2'
_chemical_formula_sum 'P2 Ti1'
_exptl_crystal_density_diffrn 4.27
_publ_section_title 'New representatives of the Nb As2 and Zr As2 structures'
_publ_section_comment 'Cell and Type only determined'
loop_
_citation_id
_citation_journal_full
_citation_year
_citation_journal_volume
_citation_page_first
_citation_page_last
_citation_journal_id_ASTM
primary 'Nature (London)' 1964 204 775 775 NATUAS
loop_
_publ_author_name
'Hulliger, F.'
_cell_length_a 6.181(3)
_cell_length_b 3.346(3)
_cell_length_c 8.256(3)
_cell_angle_alpha 90.
_cell_angle_beta 90.
_cell_angle_gamma 90.
_cell_volume 170.75
_cell_formula_units_Z 4
_symmetry_space_group_name_H-M 'P n m a'
_symmetry_Int_Tables_number 62
loop_
_symmetry_equiv_pos_site_id
_symmetry_equiv_pos_as_xyz
1 'x+1/2, y, -z+1/2'
2 'x, -y+1/2, z'
3 '-x+1/2, y+1/2, z+1/2'
4 '-x, -y, -z'
5 '-x+1/2, -y, z+1/2'
6 '-x, y+1/2, -z'
7 'x+1/2, -y+1/2, -z+1/2'
8 'x, y, z'
loop_
_atom_type_symbol
_atom_type_oxidation_number
Ti4+ 4
P1- -1
P3- -3
loop_
_atom_site_label
_atom_site_type_symbol
_atom_site_symmetry_multiplicity
_atom_site_Wyckoff_symbol
_atom_site_fract_x
_atom_site_fract_y
_atom_site_fract_z
_atom_site_B_iso_or_equiv
_atom_site_occupancy
_atom_site_attached_hydrogens
Ti1 Ti4+ 4 c 0.274 0.25 0.156 . 1. 0
P1 P1- 4 c 0.892 0.25 0.042 . 1. 0
P2 P3- 4 c 0.924 0.25 0.627 . 1. 0
#End of TTdata_648232-ICSD