
#(C) 2017 by FIZ Karlsruhe - Leibniz Institute for Information Infrastructure, and the U.S. Secretary of
#Commerce on behalf of the United States.  All rights reserved.
data_648316-ICSD
_database_code_ICSD 648316
_audit_creation_date 2013-08-01
_chemical_name_systematic 'Zirconium phosphide (1/2)'
_chemical_formula_structural 'Zr P2'
_chemical_formula_sum 'P2 Zr1'
_exptl_crystal_density_diffrn 5.1
_publ_section_title 'New Phases in the Zr - P and Zr - As Systems'
_publ_section_comment 'Cell and Type only determined'
loop_
_citation_id
_citation_journal_full
_citation_year
_citation_journal_volume
_citation_page_first
_citation_page_last
_citation_journal_id_ASTM
primary 'Acta Chemica Scandinavica (1-27,1973-42,1988)' 1966 20 1712 1714 ACSAA4
loop_
_publ_author_name
'Lundstroem, T.'
_cell_length_a 6.4940(5)
_cell_length_b 3.5135(3)
_cell_length_c 8.7434(5)
_cell_angle_alpha 90.
_cell_angle_beta 90.
_cell_angle_gamma 90.
_cell_volume 199.5
_cell_formula_units_Z 4
_symmetry_space_group_name_H-M 'P n m a'
_symmetry_Int_Tables_number 62
loop_
_symmetry_equiv_pos_site_id
_symmetry_equiv_pos_as_xyz
1 'x+1/2, y, -z+1/2'
2 'x, -y+1/2, z'
3 '-x+1/2, y+1/2, z+1/2'
4 '-x, -y, -z'
5 '-x+1/2, -y, z+1/2'
6 '-x, y+1/2, -z'
7 'x+1/2, -y+1/2, -z+1/2'
8 'x, y, z'
loop_
_atom_type_symbol
_atom_type_oxidation_number
Zr4+ 4
P1- -1
P3- -3
loop_
_atom_site_label
_atom_site_type_symbol
_atom_site_symmetry_multiplicity
_atom_site_Wyckoff_symbol
_atom_site_fract_x
_atom_site_fract_y
_atom_site_fract_z
_atom_site_B_iso_or_equiv
_atom_site_occupancy
_atom_site_attached_hydrogens
Zr1 Zr4+ 4 c 0.282 0.25 0.159 . 1. 0
P1 P1- 4 c 0.885 0.25 0.04 . 1. 0
P2 P3- 4 c 0.912 0.25 0.66 . 1. 0
#End of TTdata_648316-ICSD