
#(C) 2017 by FIZ Karlsruhe - Leibniz Institute for Information Infrastructure.  All rights reserved.
data_64831-ICSD
_database_code_ICSD 64831
_audit_creation_date 1997-11-10
_chemical_name_systematic 'Iron chloride - hp'
_chemical_formula_structural 'Fe Cl2'
_chemical_formula_sum 'Cl2 Fe1'
_chemical_name_structure_type CdI2
_chemical_name_mineral Lawrencite
_exptl_crystal_density_diffrn 3.3
_cell_measurement_pressure 640000.
_publ_section_title 'The structure of Fe Cl2 at high pressures'
loop_
_citation_id
_citation_journal_full
_citation_year
_citation_journal_volume
_citation_page_first
_citation_page_last
_citation_journal_id_ASTM
primary 'Journal of Physics and Chemistry of Solids' 1975 36 401 405 JPCSAW
loop_
_publ_author_name
'Vettier, C.'
'Yelon, W.B.'
_cell_length_a 3.585
_cell_length_b 3.585
_cell_length_c 5.735
_cell_angle_alpha 90.
_cell_angle_beta 90.
_cell_angle_gamma 120.
_cell_volume 63.83
_cell_formula_units_Z 1
_symmetry_space_group_name_H-M 'P -3 m 1'
_symmetry_Int_Tables_number 164
_refine_ls_R_factor_all 0.09
loop_
_symmetry_equiv_pos_site_id
_symmetry_equiv_pos_as_xyz
1 'x-y, -y, -z'
2 '-x, -x+y, -z'
3 'y, x, -z'
4 'x-y, x, -z'
5 'y, -x+y, -z'
6 '-x, -y, -z'
7 '-x+y, y, z'
8 'x, x-y, z'
9 '-y, -x, z'
10 '-x+y, -x, z'
11 '-y, x-y, z'
12 'x, y, z'
loop_
_atom_type_symbol
_atom_type_oxidation_number
Fe2+ 2
Cl1- -1
loop_
_atom_site_label
_atom_site_type_symbol
_atom_site_symmetry_multiplicity
_atom_site_Wyckoff_symbol
_atom_site_fract_x
_atom_site_fract_y
_atom_site_fract_z
_atom_site_B_iso_or_equiv
_atom_site_occupancy
_atom_site_attached_hydrogens
Fe1 Fe2+ 1 a 0 0 0 . 1. 0
Cl1 Cl1- 2 d 0.3333 0.6667 0.2393(12) . 1. 0
#End of TTdata_64831-ICSD