
#(C) 2017 by FIZ Karlsruhe - Leibniz Institute for Information Infrastructure, and the U.S. Secretary of
#Commerce on behalf of the United States.  All rights reserved.
data_649100-ICSD
_database_code_ICSD 649100
_audit_creation_date 2012-08-01
_chemical_name_systematic 'Yttrium palladium (3/2)'
_chemical_formula_structural 'Y3 Pd2'
_chemical_formula_sum 'Pd2 Y3'
_chemical_name_structure_type Ho3Ni2
_exptl_crystal_density_diffrn 6.56
_publ_section_title

;
R3 T2 compounds (R = rare earth or Y; T = Rh, Pd, Pt) with the rhombohedral
Er3 Ni2 structure type
;
_publ_section_comment 'Cell and Type only determined'
loop_
_citation_id
_citation_journal_full
_citation_year
_citation_journal_volume
_citation_page_first
_citation_page_last
_citation_journal_id_ASTM
primary 'Acta Crystallographica B (24,1968-38,1982)' 1977 33 2414 2417 ACBCAR
loop_
_publ_author_name
'le Roy, J.'
'Moreau, J.M.'
'Paccard, D.'
'Parthe, E.'
_cell_length_a 8.750(2)
_cell_length_b 8.750(2)
_cell_length_c 16.468(5)
_cell_angle_alpha 90.
_cell_angle_beta 90.
_cell_angle_gamma 120.
_cell_volume 1091.91
_cell_formula_units_Z 9
_symmetry_space_group_name_H-M 'R -3 H'
_symmetry_Int_Tables_number 148
loop_
_symmetry_equiv_pos_site_id
_symmetry_equiv_pos_as_xyz
1 'x-y, x, -z'
2 'y, -x+y, -z'
3 '-x, -y, -z'
4 '-x+y, -x, z'
5 '-y, x-y, z'
6 'x, y, z'
7 'x-y+2/3, x+1/3, -z+1/3'
8 'y+2/3, -x+y+1/3, -z+1/3'
9 '-x+2/3, -y+1/3, -z+1/3'
10 '-x+y+2/3, -x+1/3, z+1/3'
11 '-y+2/3, x-y+1/3, z+1/3'
12 'x+2/3, y+1/3, z+1/3'
13 'x-y+1/3, x+2/3, -z+2/3'
14 'y+1/3, -x+y+2/3, -z+2/3'
15 '-x+1/3, -y+2/3, -z+2/3'
16 '-x+y+1/3, -x+2/3, z+2/3'
17 '-y+1/3, x-y+2/3, z+2/3'
18 'x+1/3, y+2/3, z+2/3'
loop_
_atom_type_symbol
_atom_type_oxidation_number
Y0+ 0
Pd0+ 0
loop_
_atom_site_label
_atom_site_type_symbol
_atom_site_symmetry_multiplicity
_atom_site_Wyckoff_symbol
_atom_site_fract_x
_atom_site_fract_y
_atom_site_fract_z
_atom_site_B_iso_or_equiv
_atom_site_occupancy
_atom_site_attached_hydrogens
Y1 Y0+ 3 a 0 0 0 . 1. 0
Y2 Y0+ 6 c 0 0 0.208 . 1. 0
Y3 Y0+ 18 f 0.097 0.413 0.074 . 1. 0
Pd1 Pd0+ 18 f 0.31 0.247 0.104 . 1. 0
#End of TTdata_649100-ICSD