
data_649595-ICSD
_database_code_ICSD 649595
_audit_creation_date 2012-08-01
_chemical_name_systematic 'Platinum silicide selenide (1/1/1)'
_chemical_formula_structural 'Pt Si Se'
_chemical_formula_sum 'Pt1 Se1 Si1'
_chemical_name_structure_type PtGeSe
_exptl_crystal_density_diffrn 9.56
_cell_length_a 5.944(2)
_cell_length_b 5.988(2)
_cell_length_c 5.900(2)
_cell_angle_alpha 90.
_cell_angle_beta 90.
_cell_angle_gamma 90.
_cell_volume 210.
_cell_formula_units_Z 4
_symmetry_space_group_name_H-M 'P c a 21'
_symmetry_Int_Tables_number 29
loop_
_symmetry_equiv_pos_site_id
_symmetry_equiv_pos_as_xyz
1 'x+1/2, -y, z'
2 '-x+1/2, y, z+1/2'
3 '-x, -y, z+1/2'
4 'x, y, z'
loop_
_atom_type_symbol
_atom_type_oxidation_number
Pt4+ 4
Si3- -3
Se1- -1
loop_
_atom_site_label
_atom_site_type_symbol
_atom_site_symmetry_multiplicity
_atom_site_Wyckoff_symbol
_atom_site_fract_x
_atom_site_fract_y
_atom_site_fract_z
_atom_site_B_iso_or_equiv
_atom_site_occupancy
_atom_site_attached_hydrogens
Pt1 Pt4+ 4 a 0.009 0.742 0 . 1. 0
Si1 Si3- 4 a 0.383 0.136 0.617 . 1. 0
Se1 Se1- 4 a 0.62 0.376 0.382 . 1. 0
