
#(C) 2017 by FIZ Karlsruhe - Leibniz Institute for Information Infrastructure, and the U.S. Secretary of
#Commerce on behalf of the United States.  All rights reserved.
data_650380-ICSD
_database_code_ICSD 650380
_audit_creation_date 2013-08-01
_audit_update_record 2017-08-01
_chemical_name_systematic 'Rhodium stannide (2/1)'
_chemical_formula_structural 'Rh2 Sn'
_chemical_formula_sum 'Rh2 Sn1'
_chemical_name_structure_type Co2Si
_exptl_crystal_density_diffrn 11.14
_publ_section_title 'Einige strukturelle Ergebnisse an metallischen Phasen II'
_publ_section_comment 'Cell and Type only determined'
loop_
_citation_id
_citation_journal_full
_citation_year
_citation_journal_volume
_citation_page_first
_citation_page_last
_citation_journal_id_ASTM
primary Naturwissenschaften 1957 44 229 230 NATWAY
loop_
_publ_author_name
'Schubert, K.'
'Breimer, H.'
'Burkhardt, W.'
'Guenzel, E.'
'Haufler, R.'
'Lukas, H.L.'
'Vetter, H.'
'Wegst, J.'
'Wilkens, M.'
_cell_length_a 5.52
_cell_length_b 4.221
_cell_length_c 8.209
_cell_angle_alpha 90.
_cell_angle_beta 90.
_cell_angle_gamma 90.
_cell_volume 191.27
_cell_formula_units_Z 4
_symmetry_space_group_name_H-M 'P n m a'
_symmetry_Int_Tables_number 62
loop_
_symmetry_equiv_pos_site_id
_symmetry_equiv_pos_as_xyz
1 'x+1/2, y, -z+1/2'
2 'x, -y+1/2, z'
3 '-x+1/2, y+1/2, z+1/2'
4 '-x, -y, -z'
5 '-x+1/2, -y, z+1/2'
6 '-x, y+1/2, -z'
7 'x+1/2, -y+1/2, -z+1/2'
8 'x, y, z'
loop_
_atom_type_symbol
_atom_type_oxidation_number
Rh0+ 0
Sn0+ 0
loop_
_atom_site_label
_atom_site_type_symbol
_atom_site_symmetry_multiplicity
_atom_site_Wyckoff_symbol
_atom_site_fract_x
_atom_site_fract_y
_atom_site_fract_z
_atom_site_B_iso_or_equiv
_atom_site_occupancy
_atom_site_attached_hydrogens
Rh1 Rh0+ 4 c 0.053 0.25 0.218 . 1. 0
Rh2 Rh0+ 4 c 0.177 0.25 0.572 . 1. 0
Sn1 Sn0+ 4 c 0.701 0.25 0.604 . 1. 0
#End of TTdata_650380-ICSD