
#(C) 2017 by FIZ Karlsruhe - Leibniz Institute for Information Infrastructure.  All rights reserved.
data_65052-ICSD
_database_code_ICSD 65052
_audit_creation_date 1989-06-19
_audit_update_record 2011-08-01
_chemical_name_systematic 'Heptapalladium diselenide'
_chemical_formula_structural 'Pd7 Se2'
_chemical_formula_sum 'Pd7 Se2'
_exptl_crystal_density_diffrn 10.78
_publ_section_title
'Structures of superconducting palladium selenides, Pd7 Se2 and Pd34 Se11'
loop_
_citation_id
_citation_journal_full
_citation_year
_citation_journal_volume
_citation_page_first
_citation_page_last
_citation_journal_id_ASTM
primary 'Acta Crystallographica, Section C: Crystal Structure Communications'
1989 45 1 3 ACSCEE
loop_
_publ_author_name
'Sato, S.'
'Takabatake, T.'
'Ishikawa, M.'
_cell_length_a 9.441(7)
_cell_length_b 5.370(5)
_cell_length_c 5.495(4)
_cell_angle_alpha 90.
_cell_angle_beta 93.61(7)
_cell_angle_gamma 90.
_cell_volume 278.03
_cell_formula_units_Z 2
_symmetry_space_group_name_H-M 'P 1 21/a 1'
_symmetry_Int_Tables_number 14
_refine_ls_R_factor_all 0.042
loop_
_symmetry_equiv_pos_site_id
_symmetry_equiv_pos_as_xyz
1 'x+1/2, -y+1/2, z'
2 '-x, -y, -z'
3 '-x+1/2, y+1/2, -z'
4 'x, y, z'
loop_
_atom_type_symbol
_atom_type_oxidation_number
Pd0+ 0
Se0+ 0
loop_
_atom_site_label
_atom_site_type_symbol
_atom_site_symmetry_multiplicity
_atom_site_Wyckoff_symbol
_atom_site_fract_x
_atom_site_fract_y
_atom_site_fract_z
_atom_site_B_iso_or_equiv
_atom_site_occupancy
_atom_site_attached_hydrogens
Pd1 Pd0+ 2 d 0.5 0.5 0.5 . 1. 0
Pd2 Pd0+ 4 e 0.42738(7) 0.92084(13) 0.20758(13) . 1. 0
Pd3 Pd0+ 4 e 0.35143(7) 0.40151(13) 0.03078(14) . 1. 0
Pd4 Pd0+ 4 e 0.20870(6) 0.65724(13) 0.42762(12) . 1. 0
Se1 Se0+ 4 e 0.12188(9) 0.27175(16) 0.22675(15) . 1. 0
#End of TTdata_65052-ICSD