
#(C) 2017 by FIZ Karlsruhe - Leibniz Institute for Information Infrastructure, and the U.S. Secretary of
#Commerce on behalf of the United States.  All rights reserved.
data_650529-ICSD
_database_code_ICSD 650529
_audit_creation_date 2012-08-01
_chemical_name_systematic 'Yttrium rhodium (3/1)'
_chemical_formula_structural 'Y3 Rh'
_chemical_formula_sum 'Rh1 Y3'
_chemical_name_structure_type Cementite-Fe3C
_exptl_crystal_density_diffrn 5.74
_publ_section_title
'Crystal structures of some Ln3 Rh, Ln7 Rh3 and Ln Rh3 phases'
_publ_section_comment 'Cell and Type only determined'
loop_
_citation_id
_citation_journal_full
_citation_year
_citation_journal_volume
_citation_page_first
_citation_page_last
_citation_journal_id_ASTM
primary 'Journal of the Less-Common Metals' 1972 26 199 206 JCOMAH
loop_
_publ_author_name
'Raman, A.'
_cell_length_a 7.138
_cell_length_b 9.438
_cell_length_c 6.319
_cell_angle_alpha 90.
_cell_angle_beta 90.
_cell_angle_gamma 90.
_cell_volume 425.7
_cell_formula_units_Z 4
_symmetry_space_group_name_H-M 'P n m a'
_symmetry_Int_Tables_number 62
loop_
_symmetry_equiv_pos_site_id
_symmetry_equiv_pos_as_xyz
1 'x+1/2, y, -z+1/2'
2 'x, -y+1/2, z'
3 '-x+1/2, y+1/2, z+1/2'
4 '-x, -y, -z'
5 '-x+1/2, -y, z+1/2'
6 '-x, y+1/2, -z'
7 'x+1/2, -y+1/2, -z+1/2'
8 'x, y, z'
loop_
_atom_type_symbol
_atom_type_oxidation_number
Y0+ 0
Rh0+ 0
loop_
_atom_site_label
_atom_site_type_symbol
_atom_site_symmetry_multiplicity
_atom_site_Wyckoff_symbol
_atom_site_fract_x
_atom_site_fract_y
_atom_site_fract_z
_atom_site_B_iso_or_equiv
_atom_site_occupancy
_atom_site_attached_hydrogens
Y1 Y0+ 8 d 0.18 0.061 0.167 . 1. 0
Y2 Y0+ 4 c 0.021 0.25 0.638 . 1. 0
Rh1 Rh0+ 4 c 0.389 0.25 0.437 . 1. 0
#End of TTdata_650529-ICSD