
#(C) 2017 by FIZ Karlsruhe - Leibniz Institute for Information Infrastructure, and the U.S. Secretary of
#Commerce on behalf of the United States.  All rights reserved.
data_650765-ICSD
_database_code_ICSD 650765
_audit_creation_date 2013-08-01
_chemical_name_systematic 'Zirconium ruthenium vanadium (2/1/3)'
_chemical_formula_structural 'Zr2 Ru V3'
_chemical_formula_sum 'Ru1 V3 Zr2'
_chemical_name_structure_type Laves(2H)-MgZn2
_exptl_crystal_density_diffrn 6.94
_publ_section_title
'Phase equilibriain the zirconium - vanadium - ruthenium system'
_publ_section_comment 'Cell and Type only determined'
loop_
_citation_id
_citation_journal_full
_citation_year
_citation_journal_volume
_citation_page_first
_citation_page_last
_citation_journal_id_ASTM
primary 'Moscow university chemistry bulletin' 1973 28 37 39 MUCBBG
loop_
_publ_author_name
'Akhverdyan, M.M.'
'Raevskaya, M.V.'
'Burnasheva, V.V.'
'Gladyshevskii, E.I.'
'Sokolovskaya, E.M.'
_cell_length_a 5.3
_cell_length_b 5.3
_cell_length_c 8.58
_cell_angle_alpha 90.
_cell_angle_beta 90.
_cell_angle_gamma 120.
_cell_volume 208.72
_cell_formula_units_Z 2
_symmetry_space_group_name_H-M 'P 63/m m c'
_symmetry_Int_Tables_number 194
loop_
_symmetry_equiv_pos_site_id
_symmetry_equiv_pos_as_xyz
1 'x, x-y, -z+1/2'
2 '-x+y, y, -z+1/2'
3 '-y, -x, -z+1/2'
4 '-x+y, -x, -z+1/2'
5 '-y, x-y, -z+1/2'
6 'x, y, -z+1/2'
7 '-x, -x+y, z+1/2'
8 'x-y, -y, z+1/2'
9 'y, x, z+1/2'
10 'x-y, x, z+1/2'
11 'y, -x+y, z+1/2'
12 '-x, -y, z+1/2'
13 '-x, -x+y, -z'
14 'x-y, -y, -z'
15 'y, x, -z'
16 'x-y, x, -z'
17 'y, -x+y, -z'
18 '-x, -y, -z'
19 'x, x-y, z'
20 '-x+y, y, z'
21 '-y, -x, z'
22 '-x+y, -x, z'
23 '-y, x-y, z'
24 'x, y, z'
loop_
_atom_type_symbol
_atom_type_oxidation_number
V0+ 0
Ru0+ 0
Zr0+ 0
loop_
_atom_site_label
_atom_site_type_symbol
_atom_site_symmetry_multiplicity
_atom_site_Wyckoff_symbol
_atom_site_fract_x
_atom_site_fract_y
_atom_site_fract_z
_atom_site_B_iso_or_equiv
_atom_site_occupancy
_atom_site_attached_hydrogens
V1 V0+ 6 h 0.833 0.666 0.25 . 1. 0
Ru1 Ru0+ 2 a 0 0 0 . 1. 0
Zr1 Zr0+ 4 f 0.3333 0.6667 0.063 . 1. 0
#End of TTdata_650765-ICSD