
#(C) 2017 by FIZ Karlsruhe - Leibniz Institute for Information Infrastructure, and the U.S. Secretary of
#Commerce on behalf of the United States.  All rights reserved.
data_651004-ICSD
_database_code_ICSD 651004
_audit_creation_date 2008-08-01
_audit_update_record 2017-08-01
_chemical_name_systematic 'Tin sulfide'
_chemical_formula_structural 'Sn S'
_chemical_formula_sum 'S1 Sn1'
_chemical_name_structure_type TlI
_exptl_crystal_density_diffrn 5.06
_cell_measurement_temperature 1000.
_publ_section_title
'Neutron diffraction study of the structural phase transition in SnS and SnSe'
loop_
_citation_id
_citation_journal_full
_citation_year
_citation_journal_volume
_citation_page_first
_citation_page_last
_citation_journal_id_ASTM
primary 'Journal of Physics and Chemistry of Solids' 1986 47 879 885 JPCSAW
loop_
_publ_author_name
'Chattopadhyay, T.'
'Pannetier, J.'
'Schnering, H.G. von'
_cell_length_a 4.128(4)
_cell_length_b 11.48(1)
_cell_length_c 4.173(5)
_cell_angle_alpha 90.
_cell_angle_beta 90.
_cell_angle_gamma 90.
_cell_volume 197.76
_cell_formula_units_Z 4
_symmetry_space_group_name_H-M 'C m c m'
_symmetry_Int_Tables_number 63
_refine_ls_R_factor_all 0.107
loop_
_symmetry_equiv_pos_site_id
_symmetry_equiv_pos_as_xyz
1 '-x, y, -z+1/2'
2 '-x, -y, z+1/2'
3 '-x, y, z'
4 '-x, -y, -z'
5 'x, -y, z+1/2'
6 'x, y, -z+1/2'
7 'x, -y, -z'
8 'x, y, z'
9 '-x+1/2, y+1/2, -z+1/2'
10 '-x+1/2, -y+1/2, z+1/2'
11 '-x+1/2, y+1/2, z'
12 '-x+1/2, -y+1/2, -z'
13 'x+1/2, -y+1/2, z+1/2'
14 'x+1/2, y+1/2, -z+1/2'
15 'x+1/2, -y+1/2, -z'
16 'x+1/2, y+1/2, z'
loop_
_atom_type_symbol
_atom_type_oxidation_number
Sn2+ 2
S2- -2
loop_
_atom_site_label
_atom_site_type_symbol
_atom_site_symmetry_multiplicity
_atom_site_Wyckoff_symbol
_atom_site_fract_x
_atom_site_fract_y
_atom_site_fract_z
_atom_site_B_iso_or_equiv
_atom_site_occupancy
_atom_site_attached_hydrogens
Sn1 Sn2+ 4 c 0 0.1251(4) 0.25 . 1 0
S1 S2- 4 c 0 0.8503(8) 0.25 . 1 0
loop_
_atom_site_aniso_label
_atom_site_aniso_type_symbol
_atom_site_aniso_U_11
_atom_site_aniso_U_22
_atom_site_aniso_U_33
_atom_site_aniso_U_12
_atom_site_aniso_U_13
_atom_site_aniso_U_23
Sn1 Sn2+ .089(5) .045(2) .056(9) . 0 0
S1 S2- .035(4) .047(4) .02(1) . 0 0
#End of TTdata_651004-ICSD