
#(C) 2017 by FIZ Karlsruhe - Leibniz Institute for Information Infrastructure.  All rights reserved.
data_65149-ICSD
_database_code_ICSD 65149
_audit_creation_date 1989-12-04
_chemical_name_systematic 'Rubidium dilithium hydroxide'
_chemical_formula_structural 'Rb Li2 (O H)3'
_chemical_formula_sum 'H3 Li2 O3 Rb1'
_chemical_name_structure_type KLi2(OH)3
_exptl_crystal_density_diffrn 2.65
_publ_section_title

;
Neue ternaere Alkalimetallhydroxide, M Li2 (O H)3 mit M = K, Rb, Cs sowie ein
Caesiumdilithiumamid, Cs Li2 (N H2)3 - Strukturverwandtschaft zum Ba Ni O3 -
Typ und zu Li O H
;
loop_
_citation_id
_citation_journal_full
_citation_year
_citation_journal_volume
_citation_page_first
_citation_page_last
_citation_journal_id_ASTM
primary 'Zeitschrift fuer Anorganische und Allgemeine Chemie (1950) (DE)' 1987
555 43 56 ZAACAB
loop_
_publ_author_name
'Jacobs, H.'
'Schardey, A.'
'Harbrecht, B.'
_cell_length_a 6.032(3)
_cell_length_b 5.184(5)
_cell_length_c 6.211(4)
_cell_angle_alpha 90.
_cell_angle_beta 103.70(5)
_cell_angle_gamma 90.
_cell_volume 188.69
_cell_formula_units_Z 2
_symmetry_space_group_name_H-M 'P 1 21/m 1'
_symmetry_Int_Tables_number 11
_refine_ls_R_factor_all 0.039
loop_
_symmetry_equiv_pos_site_id
_symmetry_equiv_pos_as_xyz
1 'x, -y+1/2, z'
2 '-x, -y, -z'
3 '-x, y+1/2, -z'
4 'x, y, z'
loop_
_atom_type_symbol
_atom_type_oxidation_number
Rb1+ 1
Li1+ 1
O2- -2
H1+ 1
loop_
_atom_site_label
_atom_site_type_symbol
_atom_site_symmetry_multiplicity
_atom_site_Wyckoff_symbol
_atom_site_fract_x
_atom_site_fract_y
_atom_site_fract_z
_atom_site_B_iso_or_equiv
_atom_site_occupancy
_atom_site_attached_hydrogens
Rb1 Rb1+ 2 e 0.1529(2) 0.25 0.2722(2) . 1. 0
Li1 Li1+ 4 f 0.654(2) -.005(3) 0.185(2) . 1. 0
O1 O2- 2 e 0.609(1) 0.25 0.925(1) . 1. 0
O2 O2- 2 e 0.104(1) 0.25 0.792(1) . 1. 0
O3 O2- 2 e 0.675(1) 0.25 0.413(1) . 1. 0
loop_
_atom_site_aniso_label
_atom_site_aniso_type_symbol
_atom_site_aniso_U_11
_atom_site_aniso_U_22
_atom_site_aniso_U_33
_atom_site_aniso_U_12
_atom_site_aniso_U_13
_atom_site_aniso_U_23
Rb1 Rb1+ 0.0190(4) 0.0180(4) 0.0183(4) 0 0.0040(3) 0
Li1 Li1+ 0.016(5) 0.019(6) 0.015(5) -.003(5) 0.004(4) 0.004(4)
O1 O2- 0.018(3) 0.017(4) 0.016(3) 0 0.006(3) 0
O2 O2- 0.010(3) 0.022 0.021(4) 0 -.001(3) 0
O3 O2- 0.035(4) 0.019(4) 0.008(3) 0 0.003(3) 0
#End of TTdata_65149-ICSD