
#(C) 2017 by FIZ Karlsruhe - Leibniz Institute for Information Infrastructure.  All rights reserved.
data_65219-ICSD
_database_code_ICSD 65219
_audit_creation_date 1989-12-04
_audit_update_record 2000-07-15
_chemical_name_systematic 'Chromium titanium oxide (1/2/5)'
_chemical_formula_structural 'Cr Ti2 O5'
_chemical_formula_sum 'Cr1 O5 Ti2'
_chemical_name_structure_type Fe2TiO5(C2/c)
_exptl_crystal_density_diffrn 4.56
_publ_section_title

;
Weitere magnetische Untersuchungen an Ti(3-x) M(x) O5 -Phasen (M= Al3+, Fe2+,
Mn2+, Mg2+) mit einem Beitrag ueber Cr Ti2 O5
;
loop_
_citation_id
_citation_journal_full
_citation_year
_citation_journal_volume
_citation_page_first
_citation_page_last
_citation_journal_id_ASTM
primary 'Zeitschrift fuer Anorganische und Allgemeine Chemie (1950) (DE)' 1988
558 28 34 ZAACAB
loop_
_publ_author_name
'Mueller Buschbaum, H.'
'Bluhm, K.'
_cell_length_a 10.0501(35)
_cell_length_b 5.0272(21)
_cell_length_c 7.0632(16)
_cell_angle_alpha 90.
_cell_angle_beta 111.61(3)
_cell_angle_gamma 90.
_cell_volume 331.78
_cell_formula_units_Z 4
_symmetry_space_group_name_H-M 'C 1 2/c 1'
_symmetry_Int_Tables_number 15
_refine_ls_R_factor_all 0.061
loop_
_symmetry_equiv_pos_site_id
_symmetry_equiv_pos_as_xyz
1 'x, -y, z+1/2'
2 '-x, -y, -z'
3 '-x, y, -z+1/2'
4 'x, y, z'
5 'x+1/2, -y+1/2, z+1/2'
6 '-x+1/2, -y+1/2, -z'
7 '-x+1/2, y+1/2, -z+1/2'
8 'x+1/2, y+1/2, z'
loop_
_atom_type_symbol
_atom_type_oxidation_number
Ti3+ 3.5
Cr3+ 3
O2- -2
loop_
_atom_site_label
_atom_site_type_symbol
_atom_site_symmetry_multiplicity
_atom_site_Wyckoff_symbol
_atom_site_fract_x
_atom_site_fract_y
_atom_site_fract_z
_atom_site_B_iso_or_equiv
_atom_site_occupancy
_atom_site_attached_hydrogens
Ti1 Ti3+ 8 f 0.1297(2) 0.5013(13) 0.2196(3) 0.62(1) 1. 0
Cr1 Cr3+ 4 a 0 0 0 0.33(1) 1. 0
O1 O2- 8 f 0.190(1) 0.839(2) 0.656(1) 0.66(13) 1. 0
O2 O2- 8 f 0.418(1) 0.843(2) 0.056(2) 0.66(14) 1. 0
O3 O2- 4 e 0 0.805(3) 0.25 0.62(18) 1. 0
#End of TTdata_65219-ICSD