
#(C) 2017 by FIZ Karlsruhe - Leibniz Institute for Information Infrastructure.  All rights reserved.
data_65239-ICSD
_database_code_ICSD 65239
_audit_creation_date 1989-12-04
_chemical_name_systematic 'Disilver tetrachloropalladate'
_chemical_formula_structural 'Ag2 Pd Cl4'
_chemical_formula_sum 'Ag2 Cl4 Pd1'
_exptl_crystal_density_diffrn 4.7
_publ_section_title

;
Ag2 Pd Cl4, Kristallstruktur und die kristallchemische Beziehung zum Na Cl-Typ
;
loop_
_citation_id
_citation_journal_full
_citation_year
_citation_journal_volume
_citation_page_first
_citation_page_last
_citation_journal_id_ASTM
primary 'Zeitschrift fuer Anorganische und Allgemeine Chemie (1950) (DE)' 1988
562 123 130 ZAACAB
loop_
_publ_author_name
'Schroeder, L.'
'Keller, H.L.'
_cell_length_a 10.088(1)
_cell_length_b 8.051(5)
_cell_length_c 8.078(2)
_cell_angle_alpha 90.
_cell_angle_beta 90.
_cell_angle_gamma 90.
_cell_volume 656.08
_cell_formula_units_Z 4
_symmetry_space_group_name_H-M 'C m c a'
_symmetry_Int_Tables_number 64
_refine_ls_R_factor_all 0.086
loop_
_symmetry_equiv_pos_site_id
_symmetry_equiv_pos_as_xyz
1 '-x, -y+1/2, z+1/2'
2 '-x, y+1/2, -z+1/2'
3 '-x, y, z'
4 '-x, -y, -z'
5 'x, y+1/2, -z+1/2'
6 'x, -y+1/2, z+1/2'
7 'x, -y, -z'
8 'x, y, z'
9 '-x+1/2, -y, z+1/2'
10 '-x+1/2, y, -z+1/2'
11 '-x+1/2, y+1/2, z'
12 '-x+1/2, -y+1/2, -z'
13 'x+1/2, y, -z+1/2'
14 'x+1/2, -y, z+1/2'
15 'x+1/2, -y+1/2, -z'
16 'x+1/2, y+1/2, z'
loop_
_atom_type_symbol
_atom_type_oxidation_number
Pd2+ 2
Ag1+ 1
Cl1- -1
loop_
_atom_site_label
_atom_site_type_symbol
_atom_site_symmetry_multiplicity
_atom_site_Wyckoff_symbol
_atom_site_fract_x
_atom_site_fract_y
_atom_site_fract_z
_atom_site_B_iso_or_equiv
_atom_site_occupancy
_atom_site_attached_hydrogens
Pd1 Pd2+ 4 a 0 0 0 . 1. 0
Ag1 Ag1+ 8 e 0.75 0.2277(4) 0.25 . 1. 0
Cl1 Cl1- 8 d 0.7716(7) 0 0 . 1. 0
Cl2 Cl1- 8 f 0.5 0.315(1) 0.206(1) . 1. 0
loop_
_atom_site_aniso_label
_atom_site_aniso_type_symbol
_atom_site_aniso_U_11
_atom_site_aniso_U_22
_atom_site_aniso_U_33
_atom_site_aniso_U_12
_atom_site_aniso_U_13
_atom_site_aniso_U_23
Pd1 Pd2+ 0.036(2) 0.023(1) 0.023(1) 0 0 -.001(2)
Ag1 Ag1+ 0.069(2) 0.054(2) 0.054(2) 0 -.013(2) 0
Cl1 Cl1- 0.034(4) 0.054(4) 0.034(3) 0 0 -.002(3)
Cl2 Cl1- 0.048(5) 0.073(6) 0.061(5) 0 0 0.043(5)
#End of TTdata_65239-ICSD