
#(C) 2017 by FIZ Karlsruhe - Leibniz Institute for Information Infrastructure, and the U.S. Secretary of
#Commerce on behalf of the United States.  All rights reserved.
data_652489-ICSD
_database_code_ICSD 652489
_audit_creation_date 2012-08-01
_chemical_name_systematic 'Vanadium silicide (6/5)'
_chemical_formula_structural 'V6 Si5'
_chemical_formula_sum 'Si5 V6'
_chemical_name_structure_type Sn5Ti6
_exptl_crystal_density_diffrn 5.09
_publ_section_title
'Chimie minerale. Sur un nouveau siliciure de vanadium de formule V6 Si5'
_publ_section_comment 'Cell and Type only determined'
loop_
_citation_id
_citation_journal_full
_citation_year
_citation_journal_volume
_citation_page_first
_citation_page_last
_citation_journal_id_ASTM
primary

;
Comptes Rendus Hebdomadaires des Seances de l'Academie des Sciences, Serie C,
Sciences Chimiques (1966-)
; 1967 264 1947 1950 CHDCAQ
loop_
_publ_author_name
'Hallais, J.'
'Senateur, J.P.'
'Fruchart, R.'
_cell_length_a 15.966
_cell_length_b 7.501
_cell_length_c 4.858
_cell_angle_alpha 90.
_cell_angle_beta 90.
_cell_angle_gamma 90.
_cell_volume 581.8
_cell_formula_units_Z 4
_symmetry_space_group_name_H-M 'I m m m'
_symmetry_Int_Tables_number 71
loop_
_symmetry_equiv_pos_site_id
_symmetry_equiv_pos_as_xyz
1 'x, y, -z'
2 'x, -y, z'
3 '-x, y, z'
4 '-x, -y, -z'
5 '-x, -y, z'
6 '-x, y, -z'
7 'x, -y, -z'
8 'x, y, z'
9 'x+1/2, y+1/2, -z+1/2'
10 'x+1/2, -y+1/2, z+1/2'
11 '-x+1/2, y+1/2, z+1/2'
12 '-x+1/2, -y+1/2, -z+1/2'
13 '-x+1/2, -y+1/2, z+1/2'
14 '-x+1/2, y+1/2, -z+1/2'
15 'x+1/2, -y+1/2, -z+1/2'
16 'x+1/2, y+1/2, z+1/2'
loop_
_atom_type_symbol
_atom_type_oxidation_number
V0+ 0
Si0+ 0
loop_
_atom_site_label
_atom_site_type_symbol
_atom_site_symmetry_multiplicity
_atom_site_Wyckoff_symbol
_atom_site_fract_x
_atom_site_fract_y
_atom_site_fract_z
_atom_site_B_iso_or_equiv
_atom_site_occupancy
_atom_site_attached_hydrogens
V1 V0+ 4 e 0.347 0 0 . 1. 0
V2 V0+ 4 i 0 0 0.764 . 1. 0
V3 V0+ 8 k 0.25 0.25 0.25 . 1. 0
V4 V0+ 8 n 0.085 0.273 0 . 1. 0
Si1 Si0+ 4 e 0.168 0 0 . 1. 0
Si2 Si0+ 4 f 0.206 0.5 0 . 1. 0
Si3 Si0+ 4 j 0.5 0 0.244 . 1. 0
Si4 Si0+ 8 n 0.396 0.307 0 . 1. 0
#End of TTdata_652489-ICSD