
#(C) 2017 by FIZ Karlsruhe - Leibniz Institute for Information Infrastructure, and the U.S. Secretary of
#Commerce on behalf of the United States.  All rights reserved.
data_653179-ICSD
_database_code_ICSD 653179
_audit_creation_date 2010-02-01
_audit_update_record 2013-08-01
_chemical_name_systematic 'Yttrium(IV) telluride'
_chemical_formula_structural 'Y Te2'
_chemical_formula_sum 'Te2 Y1'
_chemical_name_structure_type PrOI
_exptl_crystal_density_diffrn 6.96
_publ_section_title

;
High-pressure, high-temperature syntheses of selected lanthanide-tellurium
compounds
;
_publ_section_comment 'Cell and Type only determined'
loop_
_citation_id
_citation_journal_full
_citation_year
_citation_journal_volume
_citation_page_first
_citation_page_last
_citation_journal_id_ASTM
primary 'Inorganic Chemistry' 1970 9 1639 1643 INOCAJ
loop_
_publ_author_name
'Cannon, J.F.'
'Hall, H.T.'
_cell_length_a 4.291(3)
_cell_length_b 4.291(3)
_cell_length_c 8.912(6)
_cell_angle_alpha 90.
_cell_angle_beta 90.
_cell_angle_gamma 90.
_cell_volume 164.09
_cell_formula_units_Z 2
_symmetry_space_group_name_H-M 'P 4/n m m Z'
_symmetry_Int_Tables_number 129
loop_
_symmetry_equiv_pos_site_id
_symmetry_equiv_pos_as_xyz
1 'y+1/2, x+1/2, -z'
2 '-y, x+1/2, -z'
3 'y+1/2, -x, -z'
4 '-y, -x, -z'
5 'x+1/2, y+1/2, -z'
6 '-x, y+1/2, -z'
7 'x+1/2, -y, -z'
8 '-x, -y, -z'
9 '-y+1/2, -x+1/2, z'
10 'y, -x+1/2, z'
11 '-y+1/2, x, z'
12 'y, x, z'
13 '-x+1/2, -y+1/2, z'
14 'x, -y+1/2, z'
15 '-x+1/2, y, z'
16 'x, y, z'
loop_
_atom_type_symbol
_atom_type_oxidation_number
Te1- -1
Y3+ 3
Te2- -2
loop_
_atom_site_label
_atom_site_type_symbol
_atom_site_symmetry_multiplicity
_atom_site_Wyckoff_symbol
_atom_site_fract_x
_atom_site_fract_y
_atom_site_fract_z
_atom_site_B_iso_or_equiv
_atom_site_occupancy
_atom_site_attached_hydrogens
Te1 Te1- 2 a 0.75 0.25 0 . 1. 0
Y1 Y3+ 2 c 0.25 0.25 0.27 . 1. 0
Te2 Te2- 2 c 0.25 0.25 0.635 . 1. 0
#End of TTdata_653179-ICSD