
data_654822-ICSD
_database_code_ICSD 654822
_audit_creation_date 2008-08-01
_audit_update_record 2012-02-01
_chemical_name_systematic 'Gold gallium (7/2)'
_chemical_formula_structural 'Au7 Ga2'
_chemical_formula_sum 'Au7 Ga2'
_chemical_name_structure_type Au7Ga2
_exptl_crystal_density_diffrn 16.73
_cell_length_a 7.724(1)
_cell_length_b 7.724(1)
_cell_length_c 8.751(2)
_cell_angle_alpha 90.
_cell_angle_beta 90.
_cell_angle_gamma 120.
_cell_volume 452.14
_cell_formula_units_Z 3
_symmetry_space_group_name_H-M 'P -6 2 m'
_symmetry_Int_Tables_number 189
_refine_ls_R_factor_all 0.17
loop_
_symmetry_equiv_pos_site_id
_symmetry_equiv_pos_as_xyz
1 '-x, -x+y, -z'
2 'x-y, -y, -z'
3 'y, x, -z'
4 '-x, -x+y, z'
5 'x-y, -y, z'
6 'y, x, z'
7 '-x+y, -x, -z'
8 '-y, x-y, -z'
9 'x, y, -z'
10 '-x+y, -x, z'
11 '-y, x-y, z'
12 'x, y, z'
loop_
_atom_type_symbol
_atom_type_oxidation_number
Au0+ 0
Ga0+ 0
loop_
_atom_site_label
_atom_site_type_symbol
_atom_site_symmetry_multiplicity
_atom_site_Wyckoff_symbol
_atom_site_fract_x
_atom_site_fract_y
_atom_site_fract_z
_atom_site_B_iso_or_equiv
_atom_site_occupancy
_atom_site_attached_hydrogens
Au1 Au0+ 1 a 0 0 0 0.72 1 0
Au2 Au0+ 2 d 0.3333 0.6667 0.5 1.34 1 0
Au3 Au0+ 3 f 0.369 0 0 1.32 1 0
Au4 Au0+ 3 g 0.722 0 0.5 0.88 1 0
Au5 Au0+ 6 i 0.363 0 0.332 1.16 1 0
Au6 Au0+ 6 i 0.688 0 0.17 1. 1 0
Ga1 Ga0+ 2 e 0 0 0.314 1.28 1 0
Ga2 Ga0+ 4 h 0.3333 0.6667 0.175 1.01 1 0
