
#(C) 2017 by FIZ Karlsruhe - Leibniz Institute for Information Infrastructure.  All rights reserved.
data_65554-ICSD
_database_code_ICSD 65554
_audit_creation_date 1990-06-08
_audit_update_record 2007-04-01
_chemical_name_systematic 'Dithallium(III) dibarium calcium dicopper oxide'
_chemical_formula_structural 'Tl2 Ba2 Ca Cu2 O8'
_chemical_formula_sum 'Ba2 Ca1 Cu2 O8 Tl2'
_chemical_name_structure_type Tl2CoBa2Cu2O8
_exptl_crystal_density_diffrn 7.46
_publ_section_title
'The crystal structure and superconductivity of Tl2 Ba2 Ca Cu2 O8'
loop_
_citation_id
_citation_journal_full
_citation_year
_citation_journal_volume
_citation_page_first
_citation_page_last
_citation_journal_id_ASTM
primary 'Journal of Physics D, Applied Physics' 1988 21 1031 1034 JPAPBE
loop_
_publ_author_name
'Liang, J.-K.'
'Huang, J.-Q.'
'Rao, G.-H.'
'Xie, S.-S.'
'Zhang, Y.-L.'
'Che, G.-C.'
'Cheng Xiangrong'
_cell_length_a 3.847
_cell_length_b 3.847
_cell_length_c 29.43
_cell_angle_alpha 90.
_cell_angle_beta 90.
_cell_angle_gamma 90.
_cell_volume 435.55
_cell_formula_units_Z 2
_symmetry_space_group_name_H-M 'I 4/m m m'
_symmetry_Int_Tables_number 139
loop_
_symmetry_equiv_pos_site_id
_symmetry_equiv_pos_as_xyz
1 'y, x, -z'
2 '-y, -x, -z'
3 '-y, x, -z'
4 'y, -x, -z'
5 '-x, y, -z'
6 'x, -y, -z'
7 'x, y, -z'
8 '-x, -y, -z'
9 '-y, -x, z'
10 'y, x, z'
11 'y, -x, z'
12 '-y, x, z'
13 'x, -y, z'
14 '-x, y, z'
15 '-x, -y, z'
16 'x, y, z'
17 'y+1/2, x+1/2, -z+1/2'
18 '-y+1/2, -x+1/2, -z+1/2'
19 '-y+1/2, x+1/2, -z+1/2'
20 'y+1/2, -x+1/2, -z+1/2'
21 '-x+1/2, y+1/2, -z+1/2'
22 'x+1/2, -y+1/2, -z+1/2'
23 'x+1/2, y+1/2, -z+1/2'
24 '-x+1/2, -y+1/2, -z+1/2'
25 '-y+1/2, -x+1/2, z+1/2'
26 'y+1/2, x+1/2, z+1/2'
27 'y+1/2, -x+1/2, z+1/2'
28 '-y+1/2, x+1/2, z+1/2'
29 'x+1/2, -y+1/2, z+1/2'
30 '-x+1/2, y+1/2, z+1/2'
31 '-x+1/2, -y+1/2, z+1/2'
32 'x+1/2, y+1/2, z+1/2'
loop_
_atom_type_symbol
_atom_type_oxidation_number
Ca2+ 2
Ba2+ 2
Tl3+ 3
Cu2+ 2
O2- -2
loop_
_atom_site_label
_atom_site_type_symbol
_atom_site_symmetry_multiplicity
_atom_site_Wyckoff_symbol
_atom_site_fract_x
_atom_site_fract_y
_atom_site_fract_z
_atom_site_B_iso_or_equiv
_atom_site_occupancy
_atom_site_attached_hydrogens
Ca1 Ca2+ 2 a 0 0 0 . 1. 0
Ba1 Ba2+ 4 e 0 0 0.115 . 1. 0
Tl1 Tl3+ 4 e 0 0 0.285 . 1. 0
Cu1 Cu2+ 4 e 0 0 0.45 . 1. 0
O1 O2- 8 g 0 0.5 0.45 . 1. 0
O2 O2- 4 e 0 0 0.2 . 1. 0
O3 O2- 4 e 0 0 0.38 . 1. 0
#End of TTdata_65554-ICSD