
#(C) 2017 by FIZ Karlsruhe - Leibniz Institute for Information Infrastructure, and the U.S. Secretary of
#Commerce on behalf of the United States.  All rights reserved.
data_657512-ICSD
_database_code_ICSD 657512
_audit_creation_date 2012-08-01
_chemical_name_systematic 'Tin niobium selenide (1/5/8)'
_chemical_formula_structural 'Sn Nb5 Se8'
_chemical_formula_sum 'Nb5 Se8 Sn1'
_chemical_name_structure_type EuNb5Se8
_exptl_crystal_density_diffrn 7.09
_publ_section_title

;
The A0.6 Nb5 Se8 (A = Eu, Pb, Sn, AND Sr) structure: A trigonal prismatic
variation of the Tl V5 S8 channel structure
;
_publ_section_comment 'Cell and Type only determined'
loop_
_citation_id
_citation_journal_full
_citation_year
_citation_journal_volume
_citation_page_first
_citation_page_last
_citation_journal_id_ASTM
primary 'Materials Research Bulletin' 1992 27 231 237 MRBUAC
loop_
_publ_author_name
'Brennan, T.D.'
'Ibers, J.A.'
_cell_length_a 17.941(7)
_cell_length_b 3.414(1)
_cell_length_c 9.755(3)
_cell_angle_alpha 90.
_cell_angle_beta 107.85(3)
_cell_angle_gamma 90.
_cell_volume 568.74
_cell_formula_units_Z 2
_symmetry_space_group_name_H-M 'C 1 2/m 1'
_symmetry_Int_Tables_number 12
loop_
_symmetry_equiv_pos_site_id
_symmetry_equiv_pos_as_xyz
1 '-x, y, -z'
2 '-x, -y, -z'
3 'x, -y, z'
4 'x, y, z'
5 '-x+1/2, y+1/2, -z'
6 '-x+1/2, -y+1/2, -z'
7 'x+1/2, -y+1/2, z'
8 'x+1/2, y+1/2, z'
loop_
_atom_type_symbol
_atom_type_oxidation_number
Sn2+ 2
Nb2+ 2
Nb3+ 3
Se2- -2
loop_
_atom_site_label
_atom_site_type_symbol
_atom_site_symmetry_multiplicity
_atom_site_Wyckoff_symbol
_atom_site_fract_x
_atom_site_fract_y
_atom_site_fract_z
_atom_site_B_iso_or_equiv
_atom_site_occupancy
_atom_site_attached_hydrogens
Sn1 Sn2+ 2 d 0 0.5 0.5 . 1. 0
Nb1 Nb2+ 2 a 0 0 0 . 1. 0
Nb2 Nb3+ 4 i 0.343 0 0.022 . 1. 0
Nb3 Nb3+ 4 i 0.295 0 0.662 . 1. 0
Se1 Se2- 4 i 0.575 0 0.158 . 1. 0
Se2 Se2- 4 i 0.085 0 0.821 . 1. 0
Se3 Se2- 4 i 0.168 0 0.492 . 1. 0
Se4 Se2- 4 i 0.239 0 0.157 . 1. 0
#End of TTdata_657512-ICSD