
#(C) 2017 by FIZ Karlsruhe - Leibniz Institute for Information Infrastructure, and the U.S. Secretary of
#Commerce on behalf of the United States.  All rights reserved.
data_658018-ICSD
_database_code_ICSD 658018
_audit_creation_date 2012-08-01
_chemical_name_systematic 'Yttrium chromium germanide (1/6/6)'
_chemical_formula_structural 'Y Cr6 Ge6'
_chemical_formula_sum 'Cr6 Ge6 Y1'
_chemical_name_structure_type Fe6Ge6Mg
_exptl_crystal_density_diffrn 7.26
_publ_section_title 'Magnetic properties of R Cr6 Ge6 compounds'
_publ_section_comment 'Cell and Type only determined'
loop_
_citation_id
_citation_journal_full
_citation_year
_citation_journal_volume
_citation_page_first
_citation_page_last
_citation_journal_id_ASTM
primary 'Journal of Alloys and Compounds' 1994 205 77 80 JALCEU
loop_
_publ_author_name
'Brabers, J.H.V.J.'
'Buschow, K.H.J.'
'de Boer, F.R.'
_cell_length_a 5.167
_cell_length_b 5.167
_cell_length_c 8.273
_cell_angle_alpha 90.
_cell_angle_beta 90.
_cell_angle_gamma 120.
_cell_volume 191.28
_cell_formula_units_Z 1
_symmetry_space_group_name_H-M 'P 6/m m m'
_symmetry_Int_Tables_number 191
loop_
_symmetry_equiv_pos_site_id
_symmetry_equiv_pos_as_xyz
1 '-x, -x+y, -z'
2 'x-y, -y, -z'
3 'y, x, -z'
4 '-x+y, -x, -z'
5 '-y, x-y, -z'
6 'x, y, -z'
7 'x, x-y, -z'
8 '-x+y, y, -z'
9 '-y, -x, -z'
10 'x-y, x, -z'
11 'y, -x+y, -z'
12 '-x, -y, -z'
13 'x, x-y, z'
14 '-x+y, y, z'
15 '-y, -x, z'
16 'x-y, x, z'
17 'y, -x+y, z'
18 '-x, -y, z'
19 '-x, -x+y, z'
20 'x-y, -y, z'
21 'y, x, z'
22 '-x+y, -x, z'
23 '-y, x-y, z'
24 'x, y, z'
loop_
_atom_type_symbol
_atom_type_oxidation_number
Y0+ 0
Ge0+ 0
Cr0+ 0
loop_
_atom_site_label
_atom_site_type_symbol
_atom_site_symmetry_multiplicity
_atom_site_Wyckoff_symbol
_atom_site_fract_x
_atom_site_fract_y
_atom_site_fract_z
_atom_site_B_iso_or_equiv
_atom_site_occupancy
_atom_site_attached_hydrogens
Y1 Y0+ 1 a 0 0 0 . 1. 0
Ge1 Ge0+ 2 c 0.3333 0.6667 0 . 1. 0
Ge2 Ge0+ 2 d 0.3333 0.6667 0.5 . 1. 0
Ge3 Ge0+ 2 e 0 0 0.346 . 1. 0
Cr1 Cr0+ 6 i 0.5 0 0.259 . 1. 0
#End of TTdata_658018-ICSD