
#(C) 2017 by FIZ Karlsruhe - Leibniz Institute for Information Infrastructure, and the U.S. Secretary of
#Commerce on behalf of the United States.  All rights reserved.
data_658931-ICSD
_database_code_ICSD 658931
_audit_creation_date 2013-08-01
_chemical_name_systematic 'Bismuth germanium telluride (2/3/6)'
_chemical_formula_structural 'Bi2 Ge3 Te6'
_chemical_formula_sum 'Bi2 Ge3 Te6'
_exptl_crystal_density_diffrn 7.1
_publ_section_title
'X-ray diffraction study of the layered semiconductor Ge3 +  -delta - BI2 Te6'
_publ_section_comment 'Cell and Type only determined'
loop_
_citation_id
_citation_journal_full
_citation_year
_citation_journal_volume
_citation_page_first
_citation_page_last
_citation_journal_id_ASTM
primary 'Inorganic Materials' 1994 30 1406 1411 INOMAF
loop_
_publ_author_name
'Karpinskii, O.G.'
'Shelimova, L.E.'
'Kretova, M.A.'
'Lubman, G.U.'
_cell_length_a 4.261(2)
_cell_length_b 4.261(2)
_cell_length_c 62.56(2)
_cell_angle_alpha 90.
_cell_angle_beta 90.
_cell_angle_gamma 120.
_cell_volume 983.67
_cell_formula_units_Z 3
_symmetry_space_group_name_H-M 'R 3 m H'
_symmetry_Int_Tables_number 160
loop_
_symmetry_equiv_pos_site_id
_symmetry_equiv_pos_as_xyz
1 '-x+y, y, z'
2 'x, x-y, z'
3 '-y, -x, z'
4 '-x+y, -x, z'
5 '-y, x-y, z'
6 'x, y, z'
7 '-x+y+2/3, y+1/3, z+1/3'
8 'x+2/3, x-y+1/3, z+1/3'
9 '-y+2/3, -x+1/3, z+1/3'
10 '-x+y+2/3, -x+1/3, z+1/3'
11 '-y+2/3, x-y+1/3, z+1/3'
12 'x+2/3, y+1/3, z+1/3'
13 '-x+y+1/3, y+2/3, z+2/3'
14 'x+1/3, x-y+2/3, z+2/3'
15 '-y+1/3, -x+2/3, z+2/3'
16 '-x+y+1/3, -x+2/3, z+2/3'
17 '-y+1/3, x-y+2/3, z+2/3'
18 'x+1/3, y+2/3, z+2/3'
loop_
_atom_type_symbol
_atom_type_oxidation_number
Te0+ 0
Bi0+ 0
Ge0+ 0
loop_
_atom_site_label
_atom_site_type_symbol
_atom_site_symmetry_multiplicity
_atom_site_Wyckoff_symbol
_atom_site_fract_x
_atom_site_fract_y
_atom_site_fract_z
_atom_site_B_iso_or_equiv
_atom_site_occupancy
_atom_site_attached_hydrogens
Te1 Te0+ 3 a 0 0 0.088 . 1. 0
Te2 Te0+ 3 a 0 0 0.188 . 1. 0
Te3 Te0+ 3 a 0 0 0.362 . 1. 0
Te4 Te0+ 3 a 0 0 0.636 . 1. 0
Te5 Te0+ 3 a 0 0 0.812 . 1. 0
Te6 Te0+ 3 a 0 0 0.912 . 1. 0
Bi1 Bi0+ 3 a 0 0 0 . 1. 0
Bi2 Bi0+ 3 a 0 0 0.275 . 1. 0
Ge1 Ge0+ 3 a 0 0 0.45 . 1. 0
Ge2 Ge0+ 3 a 0 0 0.55 . 1. 0
Ge3 Ge0+ 3 a 0 0 0.725 . 1. 0
#End of TTdata_658931-ICSD