
#(C) 2017 by FIZ Karlsruhe - Leibniz Institute for Information Infrastructure, and the U.S. Secretary of
#Commerce on behalf of the United States.  All rights reserved.
data_660273-ICSD
_database_code_ICSD 660273
_audit_creation_date 2008-07-07
_audit_update_record 2009-08-01
_chemical_name_systematic 'Diindium tetrathiozincate'
_chemical_formula_structural 'In2 (Zn S4)'
_chemical_formula_sum 'In2 S4 Zn1'
_chemical_name_structure_type CdGaInS4
_exptl_crystal_density_diffrn 4.44
_publ_section_title

;
Crystal structure of the double-pack polytype Zn In2 S4 (II)a, and more
careful determination of the structure of the triple-pack polytype Zn In2 S4
(III)a
;
_publ_section_comment 'Cell and Type only determined'
loop_
_citation_id
_citation_journal_full
_citation_year
_citation_journal_volume
_citation_page_first
_citation_page_last
_citation_journal_id_ASTM
primary 'Soviet Physics, Crystallography (= Kristallografiya)' 1971 16 190 192
SPHCA6
loop_
_publ_author_name
'Donika, F.G.'
'Radautsan, S.I.'
'Kiosse, G.A.'
'Semiletov, S.A.'
'Donika, T.V.'
'Mustya, I.G.'
_cell_length_a 3.85(2)
_cell_length_b 3.85(2)
_cell_length_c 24.68(4)
_cell_angle_alpha 90.
_cell_angle_beta 90.
_cell_angle_gamma 120.
_cell_volume 316.81
_cell_formula_units_Z 2
_symmetry_space_group_name_H-M 'P -3 m 1'
_symmetry_Int_Tables_number 164
_refine_ls_R_factor_all 0.177
loop_
_symmetry_equiv_pos_site_id
_symmetry_equiv_pos_as_xyz
1 'x-y, -y, -z'
2 '-x, -x+y, -z'
3 'y, x, -z'
4 'x-y, x, -z'
5 'y, -x+y, -z'
6 '-x, -y, -z'
7 '-x+y, y, z'
8 'x, x-y, z'
9 '-y, -x, z'
10 '-x+y, -x, z'
11 '-y, x-y, z'
12 'x, y, z'
loop_
_atom_type_symbol
_atom_type_oxidation_number
In3+ 3
S2- -2
Zn2+ 2
loop_
_atom_site_label
_atom_site_type_symbol
_atom_site_symmetry_multiplicity
_atom_site_Wyckoff_symbol
_atom_site_fract_x
_atom_site_fract_y
_atom_site_fract_z
_atom_site_B_iso_or_equiv
_atom_site_occupancy
_atom_site_attached_hydrogens
In1 In3+ 2 c 0 0 0.25 0.88 1 0
In2 In3+ 2 d 0.3333 0.6667 0.0941 0.88 1 0
S1 S2- 2 d 0.3333 0.6667 0.6935 0.88 1 0
S2 S2- 2 d 0.3333 0.6667 0.4375 0.88 1 0
S3 S2- 2 d 0.3333 0.6667 0.1938 0.88 1 0
S4 S2- 2 d 0.3333 0.6667 0.9375 0.88 1 0
Zn1 Zn2+ 2 d 0.3333 0.6667 0.594 0.88 1 0
#End of TTdata_660273-ICSD