
data_66120-ICSD
_database_code_ICSD 66120
_audit_creation_date 1992-01-20
_audit_update_record 2006-10-01
_chemical_name_systematic 'Nickel arsenide (1/1)'
_chemical_formula_structural 'Ni As'
_chemical_formula_sum 'As1 Ni1'
_chemical_name_structure_type Na2SiO3
_exptl_crystal_density_diffrn 7.77
_cell_length_a 10.8568(8)
_cell_length_b 6.2682(5)
_cell_length_c 5.0340(7)
_cell_angle_alpha 90.
_cell_angle_beta 90.
_cell_angle_gamma 90.
_cell_volume 342.58
_cell_formula_units_Z 12
_symmetry_space_group_name_H-M 'C m c 21'
_symmetry_Int_Tables_number 36
_refine_ls_R_factor_all 0.0273
loop_
_symmetry_equiv_pos_site_id
_symmetry_equiv_pos_as_xyz
1 'x, -y, z+1/2'
2 '-x, -y, z+1/2'
3 '-x, y, z'
4 'x, y, z'
5 'x+1/2, -y+1/2, z+1/2'
6 '-x+1/2, -y+1/2, z+1/2'
7 '-x+1/2, y+1/2, z'
8 'x+1/2, y+1/2, z'
loop_
_atom_type_symbol
_atom_type_oxidation_number
Ni0+ 0
As0+ 0
loop_
_atom_site_label
_atom_site_type_symbol
_atom_site_symmetry_multiplicity
_atom_site_Wyckoff_symbol
_atom_site_fract_x
_atom_site_fract_y
_atom_site_fract_z
_atom_site_B_iso_or_equiv
_atom_site_occupancy
_atom_site_attached_hydrogens
Ni1 Ni0+ 4 a 0 0.0029(1) -.0011(3) . 1. 0
Ni2 Ni0+ 8 b 0.3333 -.0070(1) 0.0006(2) . 1. 0
As1 As0+ 4 a 0 0.3333 0.7419(1) . 1. 0
As2 As0+ 8 b 0.3333 0.3333 0.7541(1) . 1. 0
loop_
_atom_site_aniso_label
_atom_site_aniso_type_symbol
_atom_site_aniso_U_11
_atom_site_aniso_U_22
_atom_site_aniso_U_33
_atom_site_aniso_U_12
_atom_site_aniso_U_13
_atom_site_aniso_U_23
Ni1 Ni0+ 0.0101(2) 0.0101(2) 0.0046(2) 0 0 0
Ni2 Ni0+ 0.0101(2) 0.0101(2) 0.0046(2) 0 0 0
As1 As0+ 0.0059(2) 0.0059(2) 0.0103(2) 0 0 0
As2 As0+ 0.0059(2) 0.0059(2) 0.0103(2) 0 0 0
