
#(C) 2017 by FIZ Karlsruhe - Leibniz Institute for Information Infrastructure.  All rights reserved.
data_662-ICSD
_database_code_ICSD 662
_audit_creation_date 1980-01-01
_audit_update_record 2012-08-01
_chemical_name_systematic 'Potassium carbonate - beta'
_chemical_formula_structural 'K2 (C O3)'
_chemical_formula_sum 'C1 K2 O3'
_chemical_name_structure_type K2CO3(C2/c)
_exptl_crystal_density_diffrn 2.34
_publ_section_title
'A monoclinic high-temperature modification of potassium carbonate'
loop_
_citation_id
_citation_journal_full
_citation_year
_citation_journal_volume
_citation_page_first
_citation_page_last
_citation_journal_id_ASTM
primary 'Acta Crystallographica B (24,1968-38,1982)' 1976 32 3344 3346 ACBCAR
loop_
_publ_author_name
'Becht, H.Y.'
'Struikmans, R.'
_cell_length_a 5.675(3)
_cell_length_b 9.920(4)
_cell_length_c 7.018(4)
_cell_angle_alpha 90.
_cell_angle_beta 96.8(1)
_cell_angle_gamma 90.
_cell_volume 392.31
_cell_formula_units_Z 4
_symmetry_space_group_name_H-M 'C 1 2/c 1'
_symmetry_Int_Tables_number 15
loop_
_symmetry_equiv_pos_site_id
_symmetry_equiv_pos_as_xyz
1 'x, -y, z+1/2'
2 '-x, -y, -z'
3 '-x, y, -z+1/2'
4 'x, y, z'
5 'x+1/2, -y+1/2, z+1/2'
6 '-x+1/2, -y+1/2, -z'
7 '-x+1/2, y+1/2, -z+1/2'
8 'x+1/2, y+1/2, z'
loop_
_atom_type_symbol
_atom_type_oxidation_number
K1+ 1
C4+ 4
O2- -2
loop_
_atom_site_label
_atom_site_type_symbol
_atom_site_symmetry_multiplicity
_atom_site_Wyckoff_symbol
_atom_site_fract_x
_atom_site_fract_y
_atom_site_fract_z
_atom_site_B_iso_or_equiv
_atom_site_occupancy
_atom_site_attached_hydrogens
K1 K1+ 4 a 0.5 0.5 0.5 . 1. 0
K2 K1+ 4 e 0 0.332(1) 0.25 . 1. 0
C1 C4+ 4 e 0 0.333(6) 0.75 . 1. 0
O1 O2- 4 e 0.5 0.702(3) 0.75 . 1. 0
O2 O2- 8 f 0.678(2) 0.895(2) 0.707(3) . 1. 0
loop_
_atom_site_aniso_label
_atom_site_aniso_type_symbol
_atom_site_aniso_U_11
_atom_site_aniso_U_22
_atom_site_aniso_U_33
_atom_site_aniso_U_12
_atom_site_aniso_U_13
_atom_site_aniso_U_23
K1 K1+ 0.070(5) 0.111(10) 0.103(6) 0.005(6) 0.027(4) -0.002(8)
K2 K1+ 0.050(4) 0.113(12) 0.189(10) 0 0.024(5) 0
C1 C4+ 0.050(16) 0.04(4) 0.073(22) 0 -0.003(15) 0
O1 O2- 0.063(14) 0.040(23) 0.195(30) 0 0.034(15) 0
O2 O2- 0.07(1) 0.095(19) 0.21(2) -0.009(11) 0.055(11) 0.071(18)
#End of TTdata_662-ICSD