
data_66581-ICSD
_database_code_ICSD 66581
_audit_creation_date 1994-01-19
_audit_update_record 2013-08-01
_chemical_name_systematic 'Copper(I) silver sulfide'
_chemical_formula_structural 'Cu Ag S'
_chemical_formula_sum 'Ag1 Cu1 S1'
_chemical_name_structure_type CuAgS(LT)
_chemical_name_mineral 'Stromeyerite low'
_exptl_crystal_density_diffrn 6.39
_cell_measurement_temperature 120.
_cell_length_a 4.0470(4)
_cell_length_b 6.5920(7)
_cell_length_c 7.9300(8)
_cell_angle_alpha 90.
_cell_angle_beta 90.
_cell_angle_gamma 90.
_cell_volume 211.56
_cell_formula_units_Z 4
_symmetry_space_group_name_H-M 'P m c 21'
_symmetry_Int_Tables_number 26
_refine_ls_R_factor_all 0.036
loop_
_symmetry_equiv_pos_site_id
_symmetry_equiv_pos_as_xyz
1 'x, -y, z+1/2'
2 '-x, -y, z+1/2'
3 '-x, y, z'
4 'x, y, z'
loop_
_atom_type_symbol
_atom_type_oxidation_number
Ag1+ 1
Cu1+ 1
S2- -2
loop_
_atom_site_label
_atom_site_type_symbol
_atom_site_symmetry_multiplicity
_atom_site_Wyckoff_symbol
_atom_site_fract_x
_atom_site_fract_y
_atom_site_fract_z
_atom_site_B_iso_or_equiv
_atom_site_occupancy
_atom_site_attached_hydrogens
Ag1 Ag1+ 2 a 0 -.0560(2) 0.5 . 1. 0
Ag2 Ag1+ 2 b 0.5 0.4402(2) 0.9728(1) . 1. 0
Cu1 Cu1+ 2 a 0 0.5674(2) 0.7297(3) . 1. 0
Cu2 Cu1+ 2 b 0.5 0.0663(2) 0.7424(3) . 1. 0
S1 S2- 2 a 0 0.2161(4) 0.7215(5) . 1. 0
S2 S2- 2 b 0.5 0.7133(4) 0.7594(5) . 1. 0
loop_
_atom_site_aniso_label
_atom_site_aniso_type_symbol
_atom_site_aniso_U_11
_atom_site_aniso_U_22
_atom_site_aniso_U_33
_atom_site_aniso_U_12
_atom_site_aniso_U_13
_atom_site_aniso_U_23
Ag1 Ag1+ 0.0103(3) 0.0322(5) 0.0117(5) 0 0 -.0138(4)
Ag2 Ag1+ 0.0138(4) 0.0233(4) 0.0077(4) 0 0 0.0037(4)
Cu1 Cu1+ 0.0055(5) 0.0107(5) 0.0122(8) 0 0 0.0013(6)
Cu2 Cu1+ 0.0058(5) 0.0088(5) 0.0094(8) 0 0 0.0006(6)
S1 S2- 0.0038(8) 0.0058(8) 0.0085(12) 0 0 0.0002(9)
S2 S2- 0.0056(9) 0.0073(8) 0.0092(13) 0 0 -.0009(9)
