
#(C) 2017 by FIZ Karlsruhe - Leibniz Institute for Information Infrastructure.  All rights reserved.
data_66767-ICSD
_database_code_ICSD 66767
_audit_creation_date 1995-10-17
_chemical_name_systematic 'Calcium rhodium boride (1/3/2)'
_chemical_formula_structural 'Ca Rh3 B2'
_chemical_formula_sum 'B2 Ca1 Rh3'
_exptl_crystal_density_diffrn 7.78
_publ_section_title

;
AnRh3n-1B2n mit A= Ca und Sr, eine homologe Reihe ternaerer
Erdalkali-Rhodiumboride aus Bauelementen der CeCo3B2-und der CaRh2B2-Struktur
;
loop_
_citation_id
_citation_journal_full
_citation_year
_citation_journal_volume
_citation_page_first
_citation_page_last
_citation_journal_id_ASTM
primary 'Journal of the Less-Common Metals' 1984 97 253 263 JCOMAH
loop_
_publ_author_name
'Jung, W.'
_cell_length_a 5.551(1)
_cell_length_b 5.551(1)
_cell_length_c 2.919(1)
_cell_angle_alpha 90.
_cell_angle_beta 90.
_cell_angle_gamma 120.
_cell_volume 77.89
_cell_formula_units_Z 1
_symmetry_space_group_name_H-M 'P 6/m m m'
_symmetry_Int_Tables_number 191
_refine_ls_R_factor_all 0.041
loop_
_symmetry_equiv_pos_site_id
_symmetry_equiv_pos_as_xyz
1 '-x, -x+y, -z'
2 'x-y, -y, -z'
3 'y, x, -z'
4 '-x+y, -x, -z'
5 '-y, x-y, -z'
6 'x, y, -z'
7 'x, x-y, -z'
8 '-x+y, y, -z'
9 '-y, -x, -z'
10 'x-y, x, -z'
11 'y, -x+y, -z'
12 '-x, -y, -z'
13 'x, x-y, z'
14 '-x+y, y, z'
15 '-y, -x, z'
16 'x-y, x, z'
17 'y, -x+y, z'
18 '-x, -y, z'
19 '-x, -x+y, z'
20 'x-y, -y, z'
21 'y, x, z'
22 '-x+y, -x, z'
23 '-y, x-y, z'
24 'x, y, z'
loop_
_atom_type_symbol
_atom_type_oxidation_number
Ca2+ 2
Rh1+ 1.33
B3- -3
loop_
_atom_site_label
_atom_site_type_symbol
_atom_site_symmetry_multiplicity
_atom_site_Wyckoff_symbol
_atom_site_fract_x
_atom_site_fract_y
_atom_site_fract_z
_atom_site_B_iso_or_equiv
_atom_site_occupancy
_atom_site_attached_hydrogens
Ca1 Ca2+ 1 b 0 0 0.5 . 1. 0
Rh1 Rh1+ 3 f 0.5 0 0 . 1. 0
B1 B3- 2 d 0.3333 0.6667 0.5 . 1. 0
#End of TTdata_66767-ICSD