
#(C) 2017 by FIZ Karlsruhe - Leibniz Institute for Information Infrastructure.  All rights reserved.
data_66835-ICSD
_database_code_ICSD 66835
_audit_creation_date 1997-05-13
_audit_update_record 1997-11-10
_chemical_name_systematic Tetrakis(trideuterioammine)dinitronickel
_chemical_formula_structural '(Ni (N D3)4 (N O2)2)'
_chemical_formula_sum 'D12 N6 Ni1 O4'
_chemical_name_structure_type Ni(NH3)4(NO2)2
_exptl_crystal_density_diffrn 2.
_cell_measurement_temperature 9.
_publ_section_title

;
Atomic displacement parameters for Ni (N D3)4 (N O2)2 from 9 K x-ray and 13 K
time-of-flight neutron diffraction data
;
loop_
_citation_id
_citation_journal_full
_citation_year
_citation_journal_volume
_citation_page_first
_citation_page_last
_citation_journal_id_ASTM
primary 'Acta Crystallographica, Section B: Structural Science' 1996 52 923 931
ASBSDK
loop_
_publ_author_name
'Iversen, B.B.'
'Larsen, F.K.'
'Figgis, B.N.'
'Reynolds, P.A.'
'Schultz, A.J.'
_cell_length_a 10.609(1)
_cell_length_b 6.773(1)
_cell_length_c 5.879(1)
_cell_angle_alpha 90.
_cell_angle_beta 114.86(1)
_cell_angle_gamma 90.
_cell_volume 383.29
_cell_formula_units_Z 2
_symmetry_space_group_name_H-M 'C 1 2/m 1'
_symmetry_Int_Tables_number 12
_refine_ls_R_factor_all 0.0235
loop_
_symmetry_equiv_pos_site_id
_symmetry_equiv_pos_as_xyz
1 '-x, y, -z'
2 '-x, -y, -z'
3 'x, -y, z'
4 'x, y, z'
5 '-x+1/2, y+1/2, -z'
6 '-x+1/2, -y+1/2, -z'
7 'x+1/2, -y+1/2, z'
8 'x+1/2, y+1/2, z'
loop_
_atom_type_symbol
_atom_type_oxidation_number
Ni2+ 2
O2- -2
N3+ 3
N3- -3
D1+ 1
loop_
_atom_site_label
_atom_site_type_symbol
_atom_site_symmetry_multiplicity
_atom_site_Wyckoff_symbol
_atom_site_fract_x
_atom_site_fract_y
_atom_site_fract_z
_atom_site_B_iso_or_equiv
_atom_site_occupancy
_atom_site_attached_hydrogens
Ni1 Ni2+ 2 a 0 0 0 . 1. 0
O1 O2- 4 i 0.30820(6) 0 0.19184(11) . 1. 0
O2 O2- 4 i 0.21357(5) 0 -.20938(10) . 1. 0
N1 N3+ 4 i 0.20063(6) 0 -.00625(8) . 1. 0
N2 N3- 8 j 0.06547(3) 0.22449(5) 0.27298(6) . 1. 0
loop_
_atom_site_aniso_label
_atom_site_aniso_type_symbol
_atom_site_aniso_U_11
_atom_site_aniso_U_22
_atom_site_aniso_U_33
_atom_site_aniso_U_12
_atom_site_aniso_U_13
_atom_site_aniso_U_23
Ni1 Ni2+ 0.00273(6) 0.00369(8) 0.00323(6) 0 0.00134(4) 0
O1 O2- 0.00481(13) 0.01071(24) 0.00576(13) 0 0.00125(12) 0
O2 O2- 0.00686(15) 0.00898(21) 0.00588(12) 0 0.00385(11) 0
N1 N3+ 0.00376(10) 0.00521(17) 0.00492(10) 0 0.00209(7) 0
N2 N3- 0.00581(9) 0.00526(12) 0.00603(9) -.00044(5) 0.00251(6) -.00109(5)
#End of TTdata_66835-ICSD