
#(C) 2017 by FIZ Karlsruhe - Leibniz Institute for Information Infrastructure.  All rights reserved.
data_67251-ICSD
_database_code_ICSD 67251
_audit_creation_date 1990-12-27
_audit_update_record 2015-02-01
_chemical_name_systematic 'Tetracesium hexaselenodistannate'
_chemical_formula_structural 'Cs4 (Sn2 Se6)'
_chemical_formula_sum 'Cs4 Se6 Sn2'
_chemical_name_structure_type Cs2SnSe3
_exptl_crystal_density_diffrn 4.17
_publ_section_title 'Darstellung und Kristallstruktur von Cs4 Sn2 Se6'
loop_
_citation_id
_citation_journal_full
_citation_year
_citation_journal_volume
_citation_page_first
_citation_page_last
_citation_journal_id_ASTM
primary 'Zeitschrift fuer Naturforschung, B: Chemical Sciences' 1989 44 851 852
ZNBSEN
loop_
_publ_author_name
'Sheldrick, W.S.'
'Braunbeck, H.G.'
_cell_length_a 14.634(4)
_cell_length_b 7.472(3)
_cell_length_c 12.821(3)
_cell_angle_alpha 90.
_cell_angle_beta 135.15(2)
_cell_angle_gamma 90.
_cell_volume 988.71
_cell_formula_units_Z 2
_symmetry_space_group_name_H-M 'C 1 2/m 1'
_symmetry_Int_Tables_number 12
_refine_ls_R_factor_all 0.058
loop_
_symmetry_equiv_pos_site_id
_symmetry_equiv_pos_as_xyz
1 '-x, y, -z'
2 '-x, -y, -z'
3 'x, -y, z'
4 'x, y, z'
5 '-x+1/2, y+1/2, -z'
6 '-x+1/2, -y+1/2, -z'
7 'x+1/2, -y+1/2, z'
8 'x+1/2, y+1/2, z'
loop_
_atom_type_symbol
_atom_type_oxidation_number
Cs1+ 1
Sn4+ 4
Se2- -2
loop_
_atom_site_label
_atom_site_type_symbol
_atom_site_symmetry_multiplicity
_atom_site_Wyckoff_symbol
_atom_site_fract_x
_atom_site_fract_y
_atom_site_fract_z
_atom_site_B_iso_or_equiv
_atom_site_occupancy
_atom_site_attached_hydrogens
Cs1 Cs1+ 4 i 0.6264(1) 0 0.3180(1) . 1. 0
Cs2 Cs1+ 4 i 0.2186(1) 0 0.1341(1) . 1. 0
Sn1 Sn4+ 4 i 0.0671(1) 0 0.6877(1) . 1. 0
Se1 Se2- 4 i 0.3019(1) 0 0.9140(2) . 1. 0
Se2 Se2- 4 i -.0758(1) 0 0.7265(2) . 1. 0
Se3 Se2- 4 h 0 0.2547(2) 0.5 . 1. 0
loop_
_atom_site_aniso_label
_atom_site_aniso_type_symbol
_atom_site_aniso_B_11
_atom_site_aniso_B_22
_atom_site_aniso_B_33
_atom_site_aniso_B_12
_atom_site_aniso_B_13
_atom_site_aniso_B_23
Cs1 Cs1+ 3.3(1) 3.5(1) 3.1(1) 0 2.0(1) 0
Cs2 Cs1+ 3.0(1) 2.8(1) 2.6(1) 0 2.1(1) 0
Sn1 Sn4+ 2.0(1) 1.7(1) 1.8(1) 0 1.3(1) 0
Se1 Se2- 2.0(1) 3.0(1) 2.3(1) 0 1.3(1) 0
Se2 Se2- 2.6(1) 4.0(1) 3.0(1) 0 2.1(1) 0
Se3 Se2- 4.2(1) 1.5(1) 2.4(1) 0 2.0(1) 0
#End of TTdata_67251-ICSD