
#(C) 2017 by FIZ Karlsruhe - Leibniz Institute for Information Infrastructure.  All rights reserved.
data_67345-ICSD
_database_code_ICSD 67345
_audit_creation_date 1990-12-27
_audit_update_record 1991-06-25
_chemical_name_systematic 'Dicesium zirconate'
_chemical_formula_structural 'Cs2 Zr O3'
_chemical_formula_sum 'Cs2 O3 Zr1'
_chemical_name_structure_type CsCu2Cl3
_exptl_crystal_density_diffrn 5.18
_publ_section_title
'Synthetic study of three cesium zirconates. Crystal structure of Cs2ZrO3'
loop_
_citation_id
_citation_journal_full
_citation_year
_citation_journal_volume
_citation_page_first
_citation_page_last
_citation_journal_id_ASTM
primary 'Chemistry of Materials' 1989 1 40 45 CMATEX
loop_
_publ_author_name
'Chen, T.-M.'
'Corbett, J.D.'
_cell_length_a 11.271(7)
_cell_length_b 7.743(4)
_cell_length_c 5.956(5)
_cell_angle_alpha 90.
_cell_angle_beta 90.
_cell_angle_gamma 90.
_cell_volume 519.79
_cell_formula_units_Z 4
_symmetry_space_group_name_H-M 'C m c m'
_symmetry_Int_Tables_number 63
_refine_ls_R_factor_all 0.051
loop_
_symmetry_equiv_pos_site_id
_symmetry_equiv_pos_as_xyz
1 '-x, y, -z+1/2'
2 '-x, -y, z+1/2'
3 '-x, y, z'
4 '-x, -y, -z'
5 'x, -y, z+1/2'
6 'x, y, -z+1/2'
7 'x, -y, -z'
8 'x, y, z'
9 '-x+1/2, y+1/2, -z+1/2'
10 '-x+1/2, -y+1/2, z+1/2'
11 '-x+1/2, y+1/2, z'
12 '-x+1/2, -y+1/2, -z'
13 'x+1/2, -y+1/2, z+1/2'
14 'x+1/2, y+1/2, -z+1/2'
15 'x+1/2, -y+1/2, -z'
16 'x+1/2, y+1/2, z'
loop_
_atom_type_symbol
_atom_type_oxidation_number
Cs1+ 1
Zr4+ 4
O2- -2
loop_
_atom_site_label
_atom_site_type_symbol
_atom_site_symmetry_multiplicity
_atom_site_Wyckoff_symbol
_atom_site_fract_x
_atom_site_fract_y
_atom_site_fract_z
_atom_site_B_iso_or_equiv
_atom_site_occupancy
_atom_site_attached_hydrogens
Cs1 Cs1+ 8 g 0.33643(8) 0.1450(1) 0.25 2.13(5) 1. 0
Zr1 Zr4+ 4 c 0 0.0828(2) 0.25 1.34(8) 1. 0
O1 O2- 8 e 0.1175(8) 0 0 1.9(4) 1. 0
O2 O2- 4 c 0 0.3295(19) 0.25 2.5(7) 1. 0
#End of TTdata_67345-ICSD