
data_67400-ICSD
_database_code_ICSD 67400
_audit_creation_date 1991-07-10
_chemical_name_systematic 'Chromium nitride (2/1)'
_chemical_formula_structural 'Cr2 N'
_chemical_formula_sum 'Cr2 N1'
_chemical_name_structure_type V2N
_exptl_crystal_density_diffrn 6.79
_publ_section_title 'Structure refinement for Cr2 N'
loop_
_citation_id
_citation_journal_full
_citation_year
_citation_journal_volume
_citation_page_first
_citation_page_last
_citation_journal_id_ASTM
primary 'Journal of the Less-Common Metals' 1990 158 9 10 JCOMAH
loop_
_publ_author_name
'Kim, S.-J.'
'Marquart, T.'
'Franzen, H.F.'
_cell_length_a 4.752(3)
_cell_length_b 4.752(3)
_cell_length_c 4.429(4)
_cell_angle_alpha 90.
_cell_angle_beta 90.
_cell_angle_gamma 120.
_cell_volume 86.61
_cell_formula_units_Z 3
_symmetry_space_group_name_H-M 'P -3 1 m'
_symmetry_Int_Tables_number 162
_refine_ls_R_factor_all 0.037
loop_
_symmetry_equiv_pos_site_id
_symmetry_equiv_pos_as_xyz
1 '-x+y, y, -z'
2 'x, x-y, -z'
3 '-y, -x, -z'
4 'x-y, x, -z'
5 'y, -x+y, -z'
6 '-x, -y, -z'
7 'x-y, -y, z'
8 '-x, -x+y, z'
9 'y, x, z'
10 '-x+y, -x, z'
11 '-y, x-y, z'
12 'x, y, z'
loop_
_atom_type_symbol
_atom_type_oxidation_number
Cr0+ 0
N0+ 0
loop_
_atom_site_label
_atom_site_type_symbol
_atom_site_symmetry_multiplicity
_atom_site_Wyckoff_symbol
_atom_site_fract_x
_atom_site_fract_y
_atom_site_fract_z
_atom_site_B_iso_or_equiv
_atom_site_occupancy
_atom_site_attached_hydrogens
Cr1 Cr0+ 6 k 0.333(2) 0 0.2491(3) 0.33(7) 1. 0
N1 N0+ 2 d 0.3333 0.6667 0.5 0.2(8) 1. 0
N2 N0+ 1 a 0 0 0 0.1(8) 1. 0
