
#(C) 2017 by FIZ Karlsruhe - Leibniz Institute for Information Infrastructure.  All rights reserved.
data_67888-ICSD
_database_code_ICSD 67888
_audit_creation_date 1995-01-10
_chemical_name_systematic 'Calcium trinitridomanganate(III)'
_chemical_formula_structural 'Ca3 (Mn N3)'
_chemical_formula_sum 'Ca3 Mn1 N3'
_chemical_name_structure_type Ca3CrN3
_exptl_crystal_density_diffrn 3.33
_publ_section_title

;
Ca3(MnN3), ein neues Nitridomanganat(III): Anionen (Mn(III)N3)(6-) mit
C2v-Symmetrie
;
loop_
_citation_id
_citation_journal_full
_citation_year
_citation_journal_volume
_citation_page_first
_citation_page_last
_citation_journal_id_ASTM
primary 'Zeitschrift fuer Naturforschung, B: Chemical Sciences' 1993 48 1831
1834 ZNBSEN
loop_
_publ_author_name
'Tennstedt, A.'
'Roehr, C.'
'Kniep, R.'
_cell_length_a 8.426(1)
_cell_length_b 10.247(2)
_cell_length_c 5.014(1)
_cell_angle_alpha 90.
_cell_angle_beta 90.
_cell_angle_gamma 90.
_cell_volume 432.91
_cell_formula_units_Z 4
_symmetry_space_group_name_H-M 'C m c m'
_symmetry_Int_Tables_number 63
_refine_ls_R_factor_all 0.026
loop_
_symmetry_equiv_pos_site_id
_symmetry_equiv_pos_as_xyz
1 '-x, y, -z+1/2'
2 '-x, -y, z+1/2'
3 '-x, y, z'
4 '-x, -y, -z'
5 'x, -y, z+1/2'
6 'x, y, -z+1/2'
7 'x, -y, -z'
8 'x, y, z'
9 '-x+1/2, y+1/2, -z+1/2'
10 '-x+1/2, -y+1/2, z+1/2'
11 '-x+1/2, y+1/2, z'
12 '-x+1/2, -y+1/2, -z'
13 'x+1/2, -y+1/2, z+1/2'
14 'x+1/2, y+1/2, -z+1/2'
15 'x+1/2, -y+1/2, -z'
16 'x+1/2, y+1/2, z'
loop_
_atom_type_symbol
_atom_type_oxidation_number
Ca2+ 2
Mn3+ 3
N3- -3
loop_
_atom_site_label
_atom_site_type_symbol
_atom_site_symmetry_multiplicity
_atom_site_Wyckoff_symbol
_atom_site_fract_x
_atom_site_fract_y
_atom_site_fract_z
_atom_site_B_iso_or_equiv
_atom_site_occupancy
_atom_site_attached_hydrogens
Ca1 Ca2+ 4 c 0 0.6077(1) 0.25 . 1. 0
Ca2 Ca2+ 8 g 0.2866(1) 0.3834(1) 0.25 . 1. 0
Mn1 Mn3+ 4 c 0 0.1989(1) 0.25 . 1. 0
N1 N3- 4 c 0 0.3744(5) 0.25 0.0075(9) 1. 0
N2 N3- 8 g 0.1934(4) 0.1258(3) 0.25 0.0088(7) 1. 0
loop_
_atom_site_aniso_label
_atom_site_aniso_type_symbol
_atom_site_aniso_U_11
_atom_site_aniso_U_22
_atom_site_aniso_U_33
_atom_site_aniso_U_12
_atom_site_aniso_U_13
_atom_site_aniso_U_23
Ca1 Ca2+ 0.0108(5) 0.0084(5) 0.0078(5) 0 0 0
Ca2 Ca2+ 0.0077(4) 0.0095(3) 0.0078(4) 0.0008(2) 0 0
Mn1 Mn3+ 0.0045(4) 0.0042(4) 0.0062(4) 0 0 0
#End of TTdata_67888-ICSD