
#(C) 2017 by FIZ Karlsruhe - Leibniz Institute for Information Infrastructure.  All rights reserved.
data_68198-ICSD
_database_code_ICSD 68198
_audit_creation_date 1991-07-10
_audit_update_record 2004-04-01
_chemical_name_systematic 'Dithallium calcium dibarium dicopper oxide'
_chemical_formula_structural 'Tl2 Ca Ba2 Cu2 O8'
_chemical_formula_sum 'Ba2 Ca1 Cu2 O8 Tl2'
_exptl_crystal_density_diffrn 7.49
_publ_section_title

;
Preparative and structural studies on the superconducting phase Tl2 Ca Ba2 Cu2
O8
;
loop_
_citation_id
_citation_journal_full
_citation_year
_citation_journal_volume
_citation_page_first
_citation_page_last
_citation_journal_id_ASTM
primary 'Modern Physics Letters B' 1988 2 799 804 MPLBET
loop_
_publ_author_name
'Tang Youqi'
'Lin Bingxiong'
'Zhu Wenjie'
'Zhang Yufen'
'Zheng Xiangmiao'
_cell_length_a 3.856(1)
_cell_length_b 3.856(1)
_cell_length_c 29.186(14)
_cell_angle_alpha 90.
_cell_angle_beta 90.
_cell_angle_gamma 90.
_cell_volume 433.96
_cell_formula_units_Z 2
_symmetry_space_group_name_H-M 'P 4/m m m'
_symmetry_Int_Tables_number 123
_refine_ls_R_factor_all 0.1
loop_
_symmetry_equiv_pos_site_id
_symmetry_equiv_pos_as_xyz
1 'y, x, -z'
2 '-y, -x, -z'
3 '-y, x, -z'
4 'y, -x, -z'
5 '-x, y, -z'
6 'x, -y, -z'
7 'x, y, -z'
8 '-x, -y, -z'
9 '-y, -x, z'
10 'y, x, z'
11 'y, -x, z'
12 '-y, x, z'
13 'x, -y, z'
14 '-x, y, z'
15 '-x, -y, z'
16 'x, y, z'
loop_
_atom_type_symbol
_atom_type_oxidation_number
Tl3+ 3
Cu2+ 2
Ba2+ 2
Ca2+ 2
O2- -2
loop_
_atom_site_label
_atom_site_type_symbol
_atom_site_symmetry_multiplicity
_atom_site_Wyckoff_symbol
_atom_site_fract_x
_atom_site_fract_y
_atom_site_fract_z
_atom_site_B_iso_or_equiv
_atom_site_occupancy
_atom_site_attached_hydrogens
Tl1 Tl3+ 2 h 0.5 0.5 0.209(12) 0.2(1) 1. 0
Tl2 Tl3+ 2 g 0 0 0.2900(2) 0.2(1) 1. 0
Cu1 Cu2+ 2 h 0.5 0.5 0.0570(4) 0.5(1) 1. 0
Cu2 Cu2+ 2 g 0 0 0.4430(5) 0.5(1) 1. 0
Ba1 Ba2+ 2 g 0 0 0.1200(2) 0.3(1) 1. 0
Ba2 Ba2+ 2 h 0.5 0.5 0.3800(3) 0.3(1) 1. 0
Ca1 Ca2+ 1 a 0 0 0 0.5(2) 1. 0
Ca2 Ca2+ 1 d 0.5 0.5 0.5 0.5(2) 1. 0
O1 O2- 4 i 0 0.5 0.0517(8) 1.5(2) 1. 0
O2 O2- 2 h 0.5 0.5 0.1390(9) 1.5(3) 1. 0
O3 O2- 4 i 0.5 0 0.2496(7) 1.5(2) 1. 0
O4 O2- 2 g 0 0 0.3600(9) 1.5(3) 1. 0
O5 O2- 4 i 0.5 0 0.4483(8) 1.5(2) 1. 0
#End of TTdata_68198-ICSD