
data_68423-ICSD
_database_code_ICSD 68423
_audit_creation_date 1991-07-10
_audit_update_record 2012-08-01
_chemical_name_systematic 'Silver chromium selenide'
_chemical_formula_structural 'Ag Cr Se2'
_chemical_formula_sum 'Ag1 Cr1 Se2'
_chemical_name_structure_type CuCrSe2-AgCrSe2(R3m)
_exptl_crystal_density_diffrn 6.36
_cell_measurement_temperature 295.
_cell_length_a 3.6798(2)
_cell_length_b 3.6798(2)
_cell_length_c 21.2250(20)
_cell_angle_alpha 90.
_cell_angle_beta 90.
_cell_angle_gamma 120.
_cell_volume 248.9
_cell_formula_units_Z 3
_symmetry_space_group_name_H-M 'R 3 m H'
_symmetry_Int_Tables_number 160
_refine_ls_R_factor_all 0.022
loop_
_symmetry_equiv_pos_site_id
_symmetry_equiv_pos_as_xyz
1 '-x+y, y, z'
2 'x, x-y, z'
3 '-y, -x, z'
4 '-x+y, -x, z'
5 '-y, x-y, z'
6 'x, y, z'
7 '-x+y+2/3, y+1/3, z+1/3'
8 'x+2/3, x-y+1/3, z+1/3'
9 '-y+2/3, -x+1/3, z+1/3'
10 '-x+y+2/3, -x+1/3, z+1/3'
11 '-y+2/3, x-y+1/3, z+1/3'
12 'x+2/3, y+1/3, z+1/3'
13 '-x+y+1/3, y+2/3, z+2/3'
14 'x+1/3, x-y+2/3, z+2/3'
15 '-y+1/3, -x+2/3, z+2/3'
16 '-x+y+1/3, -x+2/3, z+2/3'
17 '-y+1/3, x-y+2/3, z+2/3'
18 'x+1/3, y+2/3, z+2/3'
loop_
_atom_type_symbol
_atom_type_oxidation_number
Ag1+ 1
Cr3+ 3
Se2- -2
loop_
_atom_site_label
_atom_site_type_symbol
_atom_site_symmetry_multiplicity
_atom_site_Wyckoff_symbol
_atom_site_fract_x
_atom_site_fract_y
_atom_site_fract_z
_atom_site_B_iso_or_equiv
_atom_site_occupancy
_atom_site_attached_hydrogens
Ag1 Ag1+ 3 a 0 0 0.1531(2) . 1. 0
Cr1 Cr3+ 3 a 0 0 0 . 1. 0
Se1 Se2- 3 a 0 0 0.2692(1) . 1. 0
Se2 Se2- 3 a 0 0 0.7328(1) . 1. 0
loop_
_atom_site_aniso_label
_atom_site_aniso_type_symbol
_atom_site_aniso_U_11
_atom_site_aniso_U_22
_atom_site_aniso_U_33
_atom_site_aniso_U_12
_atom_site_aniso_U_13
_atom_site_aniso_U_23
Ag1 Ag1+ 0.0826(9) 0.0826(9) 0.0113(4) 0.0413 0 0
Cr1 Cr3+ 0.0079(3) 0.0079(3) 0.0082(5) 0.00395 0 0
Se1 Se2- 0.0080(5) 0.0080(5) 0.0069(4) 0.004 0 0
Se2 Se2- 0.0080(5) 0.0080(5) 0.0103(4) 0.004 0 0
