
#(C) 2017 by FIZ Karlsruhe - Leibniz Institute for Information Infrastructure.  All rights reserved.
data_68498-ICSD
_database_code_ICSD 68498
_audit_creation_date 1991-07-10
_chemical_name_systematic 'Lanthanum oxide sulfide (2/2/2)'
_chemical_formula_structural 'La2 O2 S2'
_chemical_formula_sum 'La2 O2 S2'
_exptl_crystal_density_diffrn 5.33
_publ_section_title 'Room temperature structure of La2O2S2'
loop_
_citation_id
_citation_journal_full
_citation_year
_citation_journal_volume
_citation_page_first
_citation_page_last
_citation_journal_id_ASTM
primary 'Acta Crystallographica, Section C: Crystal Structure Communications'
1990 46 1376 1378 ACSCEE
loop_
_publ_author_name
'Ostorero, J.'
'le Blanc, M.'
_cell_length_a 13.215(2)
_cell_length_b 5.943(1)
_cell_length_c 5.938(1)
_cell_angle_alpha 90.
_cell_angle_beta 90.
_cell_angle_gamma 90.
_cell_volume 466.35
_cell_formula_units_Z 4
_symmetry_space_group_name_H-M 'C m c a'
_symmetry_Int_Tables_number 64
_refine_ls_R_factor_all 0.017
loop_
_symmetry_equiv_pos_site_id
_symmetry_equiv_pos_as_xyz
1 '-x, -y+1/2, z+1/2'
2 '-x, y+1/2, -z+1/2'
3 '-x, y, z'
4 '-x, -y, -z'
5 'x, y+1/2, -z+1/2'
6 'x, -y+1/2, z+1/2'
7 'x, -y, -z'
8 'x, y, z'
9 '-x+1/2, -y, z+1/2'
10 '-x+1/2, y, -z+1/2'
11 '-x+1/2, y+1/2, z'
12 '-x+1/2, -y+1/2, -z'
13 'x+1/2, y, -z+1/2'
14 'x+1/2, -y, z+1/2'
15 'x+1/2, -y+1/2, -z'
16 'x+1/2, y+1/2, z'
loop_
_atom_type_symbol
_atom_type_oxidation_number
La3+ 3
S1- -1
O2- -2
loop_
_atom_site_label
_atom_site_type_symbol
_atom_site_symmetry_multiplicity
_atom_site_Wyckoff_symbol
_atom_site_fract_x
_atom_site_fract_y
_atom_site_fract_z
_atom_site_B_iso_or_equiv
_atom_site_occupancy
_atom_site_attached_hydrogens
La1 La3+ 8 d 0.3392(1) 0 0 . 1. 0
S1 S1- 8 f 0 0.3750(2) 0.3747(2) . 1. 0
O1 O2- 8 e 0.25 0.2446(4) 0.25 . 1. 0
loop_
_atom_site_aniso_label
_atom_site_aniso_type_symbol
_atom_site_aniso_U_11
_atom_site_aniso_U_22
_atom_site_aniso_U_33
_atom_site_aniso_U_12
_atom_site_aniso_U_13
_atom_site_aniso_U_23
La1 La3+ 0.0052(1) 0.0053(1) 0.0045(1) 0 0 -.0001(1)
S1 S1- 0.0087(2) 0.0098(3) 0.0091(3) 0 0 0.0002(4)
O1 O2- 0.0075(8) 0.0066(9) 0.0069(9) 0 0.0001(7) 0
#End of TTdata_68498-ICSD