
data_68701-ICSD
_database_code_ICSD 68701
_audit_creation_date 1992-01-20
_audit_update_record 2012-08-01
_chemical_name_systematic 'Lead sulfide'
_chemical_formula_structural 'Pb S'
_chemical_formula_sum 'Pb1 S1'
_chemical_name_structure_type LaS
_exptl_crystal_density_diffrn 3.95
_cell_length_a 5.834(2)
_cell_length_b 5.801(1)
_cell_length_c 11.902(3)
_cell_angle_alpha 90.
_cell_angle_beta 90.
_cell_angle_gamma 90.
_cell_volume 402.8
_cell_formula_units_Z 4
_symmetry_space_group_name_H-M 'C m 2 a'
_symmetry_Int_Tables_number 39
_refine_ls_R_factor_all 0.062
loop_
_symmetry_equiv_pos_site_id
_symmetry_equiv_pos_as_xyz
1 '-x+1/2, y, z'
2 'x+1/2, y, -z'
3 '-x, y, -z'
4 'x, y, z'
5 '-x, y+1/2, z'
6 'x, y+1/2, -z'
7 '-x+1/2, y+1/2, -z'
8 'x+1/2, y+1/2, z'
loop_
_atom_type_symbol
_atom_type_oxidation_number
Pb2+ 2
S2- -2
loop_
_atom_site_label
_atom_site_type_symbol
_atom_site_symmetry_multiplicity
_atom_site_Wyckoff_symbol
_atom_site_fract_x
_atom_site_fract_y
_atom_site_fract_z
_atom_site_B_iso_or_equiv
_atom_site_occupancy
_atom_site_attached_hydrogens
Pb1 Pb2+ 4 c 0.25 0 0.6395(1) . 1. 0
S1 S2- 4 c 0.25 -.479 0.5957(7) . 1. 0
loop_
_atom_site_aniso_label
_atom_site_aniso_type_symbol
_atom_site_aniso_U_11
_atom_site_aniso_U_22
_atom_site_aniso_U_33
_atom_site_aniso_U_12
_atom_site_aniso_U_13
_atom_site_aniso_U_23
Pb1 Pb2+ 0.0475(7) 0.0226(6) 0.026(5) 0 0.0082 0.000(4)
S1 S2- 0.039(4) 0.011(1) 0.017(1) 0 0 0.000(6)
