
#(C) 2017 by FIZ Karlsruhe - Leibniz Institute for Information Infrastructure.  All rights reserved.
data_68789-ICSD
_database_code_ICSD 68789
_audit_creation_date 1992-01-20
_chemical_name_systematic 'Hafnium molybdenum silicide (1/1/1)'
_chemical_formula_structural 'Hf Mo Si'
_chemical_formula_sum 'Hf1 Mo1 Si1'
_chemical_name_structure_type TiNiSi-MgSrSi
_exptl_crystal_density_diffrn 10.09
_publ_section_title 'Ternary equiatomic hafnium-transition metal silicides'
loop_
_citation_id
_citation_journal_full
_citation_year
_citation_journal_volume
_citation_page_first
_citation_page_last
_citation_journal_id_ASTM
primary 'Journal of the Less-Common Metals' 1990 163 7 12 JCOMAH
loop_
_publ_author_name
'Zhao, J.-T.'
'Parthe, E.'
_cell_length_a 6.932(1)
_cell_length_b 3.5052(6)
_cell_length_c 8.196(2)
_cell_angle_alpha 90.
_cell_angle_beta 90.
_cell_angle_gamma 90.
_cell_volume 199.15
_cell_formula_units_Z 4
_symmetry_space_group_name_H-M 'P n m a'
_symmetry_Int_Tables_number 62
_refine_ls_R_factor_all 0.045
loop_
_symmetry_equiv_pos_site_id
_symmetry_equiv_pos_as_xyz
1 'x+1/2, y, -z+1/2'
2 'x, -y+1/2, z'
3 '-x+1/2, y+1/2, z+1/2'
4 '-x, -y, -z'
5 '-x+1/2, -y, z+1/2'
6 '-x, y+1/2, -z'
7 'x+1/2, -y+1/2, -z+1/2'
8 'x, y, z'
loop_
_atom_type_symbol
_atom_type_oxidation_number
Hf0+ 0
Mo0+ 0
Si0+ 0
loop_
_atom_site_label
_atom_site_type_symbol
_atom_site_symmetry_multiplicity
_atom_site_Wyckoff_symbol
_atom_site_fract_x
_atom_site_fract_y
_atom_site_fract_z
_atom_site_B_iso_or_equiv
_atom_site_occupancy
_atom_site_attached_hydrogens
Hf1 Hf0+ 4 c 0.0423(2) 0.25 0.6669(1) 0.0070(6) 1. 0
Mo1 Mo0+ 4 c 0.1345(4) 0.25 0.0621(3) 0.0024(10) 1. 0
Si1 Si0+ 4 c 0.2563(13) 0.25 0.3636(8) 0.007(3) 1. 0
#End of TTdata_68789-ICSD