
#(C) 2017 by FIZ Karlsruhe - Leibniz Institute for Information Infrastructure.  All rights reserved.
data_69098-ICSD
_database_code_ICSD 69098
_audit_creation_date 1992-01-20
_audit_update_record 2012-02-01
_chemical_name_systematic 'Diyttrium catena-dicarbidorhenate(II)'
_chemical_formula_structural 'Y2 (Re C2)'
_chemical_formula_sum 'C2 Re1 Y2'
_chemical_name_structure_type Y2ReC2
_exptl_crystal_density_diffrn 7.84
_publ_section_title

;
Pr2 Re C2 and other ternary rare earth metal rhenium carbides with filled Pb
Cl2 (Co2 Si) structure
;
loop_
_citation_id
_citation_journal_full
_citation_year
_citation_journal_volume
_citation_page_first
_citation_page_last
_citation_journal_id_ASTM
primary 'Journal of Solid State Chemistry' 1990 89 191 201 JSSCBI
loop_
_publ_author_name
'Jeitschko, W.'
'Block, G.'
'Kahnert, G.E.'
'Behrens, R.K.'
_cell_length_a 6.5569(6)
_cell_length_b 5.0946(5)
_cell_length_c 9.8442(8)
_cell_angle_alpha 90.
_cell_angle_beta 90.
_cell_angle_gamma 90.
_cell_volume 328.84
_cell_formula_units_Z 4
_symmetry_space_group_name_H-M 'P n m a'
_symmetry_Int_Tables_number 62
_refine_ls_R_factor_all 0.088
loop_
_symmetry_equiv_pos_site_id
_symmetry_equiv_pos_as_xyz
1 'x+1/2, y, -z+1/2'
2 'x, -y+1/2, z'
3 '-x+1/2, y+1/2, z+1/2'
4 '-x, -y, -z'
5 '-x+1/2, -y, z+1/2'
6 '-x, y+1/2, -z'
7 'x+1/2, -y+1/2, -z+1/2'
8 'x, y, z'
loop_
_atom_type_symbol
_atom_type_oxidation_number
Y3+ 3
Re2+ 2
C4- -4
loop_
_atom_site_label
_atom_site_type_symbol
_atom_site_symmetry_multiplicity
_atom_site_Wyckoff_symbol
_atom_site_fract_x
_atom_site_fract_y
_atom_site_fract_z
_atom_site_B_iso_or_equiv
_atom_site_occupancy
_atom_site_attached_hydrogens
Y1 Y3+ 4 c 0.819(6) 0.25 0.053(4) 0.4 1. 0
Y2 Y3+ 4 c 0.465(7) 0.25 0.784(4) 0.4 1. 0
Re1 Re2+ 4 c 0.276(3) 0.25 0.132(2) 0.4 1. 0
C1 C4- 4 c 0.02(6) 0.25 0.30(3) 0.6 1. 0
C2 C4- 4 c 0.66(5) 0.25 0.58(3) 0.6 1. 0
#End of TTdata_69098-ICSD