
#(C) 2017 by FIZ Karlsruhe - Leibniz Institute for Information Infrastructure.  All rights reserved.
data_69123-ICSD
_database_code_ICSD 69123
_audit_creation_date 1992-01-20
_audit_update_record 2015-02-01
_chemical_name_systematic 'Hexamercury disilicate'
_chemical_formula_structural 'Hg6 (Si2 O7)'
_chemical_formula_sum 'Hg6 O7 Si2'
_chemical_name_mineral Edgarbaileyite
_exptl_crystal_density_diffrn 9.07
_publ_section_title
'Edgarbaileyite, Hg4Si2O7: the crystal structure of the first mercury silicate'
loop_
_citation_id
_citation_journal_full
_citation_year
_citation_journal_volume
_citation_page_first
_citation_page_last
_citation_journal_id_ASTM
primary 'American Mineralogist' 1990 75 1192 1196 AMMIAY
loop_
_publ_author_name
'Angel, R.J.'
'Cressey, G.'
'Criddle, A.'
_cell_length_a 11.755(3)
_cell_length_b 7.678(2)
_cell_length_c 5.991(2)
_cell_angle_alpha 90.
_cell_angle_beta 111.73(3)
_cell_angle_gamma 90.
_cell_volume 502.29
_cell_formula_units_Z 2
_symmetry_space_group_name_H-M 'C 1 2/m 1'
_symmetry_Int_Tables_number 12
_refine_ls_R_factor_all 0.058
loop_
_symmetry_equiv_pos_site_id
_symmetry_equiv_pos_as_xyz
1 '-x, y, -z'
2 '-x, -y, -z'
3 'x, -y, z'
4 'x, y, z'
5 '-x+1/2, y+1/2, -z'
6 '-x+1/2, -y+1/2, -z'
7 'x+1/2, -y+1/2, z'
8 'x+1/2, y+1/2, z'
loop_
_atom_type_symbol
_atom_type_oxidation_number
Hg1+ 1
Si4+ 4
O2- -2
loop_
_atom_site_label
_atom_site_type_symbol
_atom_site_symmetry_multiplicity
_atom_site_Wyckoff_symbol
_atom_site_fract_x
_atom_site_fract_y
_atom_site_fract_z
_atom_site_B_iso_or_equiv
_atom_site_occupancy
_atom_site_attached_hydrogens
Hg1 Hg1+ 4 i 0.1140(1) 0 0.0490(3) . 1. 0
Hg2 Hg1+ 8 j 0.1155(1) 0.2423(2) 0.5789(2) . 1. 0
Si1 Si4+ 4 i 0.6491(7) 0 0.105(2) 1.2(2) 1. 0
O1 O2- 4 i 0.303(2) 0 0.113(4) 1.8(4) 1. 0
O2 O2- 8 j 0.311(1) 0.168(3) 0.728(3) 1.7(3) 1. 0
O3 O2- 2 b 0.5 0 0 0.1(4) 1. 0
loop_
_atom_site_aniso_label
_atom_site_aniso_type_symbol
_atom_site_aniso_beta_11
_atom_site_aniso_beta_22
_atom_site_aniso_beta_33
_atom_site_aniso_beta_12
_atom_site_aniso_beta_13
_atom_site_aniso_beta_23
Hg1 Hg1+ 0.0015(1) 0.0102(3) 0.0128(4) 0 0.0019(1) 0
Hg2 Hg1+ 0.0016(1) 0.0072(2) 0.0135(3) 0.0002(1) 0.0011(1) 0.0010(3)
#End of TTdata_69123-ICSD