
#(C) 2017 by FIZ Karlsruhe - Leibniz Institute for Information Infrastructure.  All rights reserved.
data_69636-ICSD
_database_code_ICSD 69636
_audit_creation_date 1992-08-20
_audit_update_record 2000-07-15
_chemical_name_systematic 'Barium chloropentaoxodiindate chloride'
_chemical_formula_structural 'Ba3 (In2 O5 Cl) Cl'
_chemical_formula_sum 'Ba3 Cl2 In2 O5'
_chemical_name_structure_type Ca3Fe2O5Cl2
_exptl_crystal_density_diffrn 5.88
_publ_section_title
'Ueber ein neues Halogenooxoindat: Ba3 In2 O5 Cl2 mit Sr3 Ti2 O7 Struktur'
loop_
_citation_id
_citation_journal_full
_citation_year
_citation_journal_volume
_citation_page_first
_citation_page_last
_citation_journal_id_ASTM
primary 'Zeitschrift fuer Anorganische und Allgemeine Chemie (1950) (DE)' 1990
584 125 128 ZAACAB
loop_
_publ_author_name
'Gutau, W.'
'Mueller Buschbaum, H.'
_cell_length_a 4.2359(6)
_cell_length_b 4.2359(6)
_cell_length_c 24.929(31)
_cell_angle_alpha 90.
_cell_angle_beta 90.
_cell_angle_gamma 90.
_cell_volume 447.3
_cell_formula_units_Z 2
_symmetry_space_group_name_H-M 'I 4/m m m'
_symmetry_Int_Tables_number 139
_refine_ls_R_factor_all 0.028
loop_
_symmetry_equiv_pos_site_id
_symmetry_equiv_pos_as_xyz
1 'y, x, -z'
2 '-y, -x, -z'
3 '-y, x, -z'
4 'y, -x, -z'
5 '-x, y, -z'
6 'x, -y, -z'
7 'x, y, -z'
8 '-x, -y, -z'
9 '-y, -x, z'
10 'y, x, z'
11 'y, -x, z'
12 '-y, x, z'
13 'x, -y, z'
14 '-x, y, z'
15 '-x, -y, z'
16 'x, y, z'
17 'y+1/2, x+1/2, -z+1/2'
18 '-y+1/2, -x+1/2, -z+1/2'
19 '-y+1/2, x+1/2, -z+1/2'
20 'y+1/2, -x+1/2, -z+1/2'
21 '-x+1/2, y+1/2, -z+1/2'
22 'x+1/2, -y+1/2, -z+1/2'
23 'x+1/2, y+1/2, -z+1/2'
24 '-x+1/2, -y+1/2, -z+1/2'
25 '-y+1/2, -x+1/2, z+1/2'
26 'y+1/2, x+1/2, z+1/2'
27 'y+1/2, -x+1/2, z+1/2'
28 '-y+1/2, x+1/2, z+1/2'
29 'x+1/2, -y+1/2, z+1/2'
30 '-x+1/2, y+1/2, z+1/2'
31 '-x+1/2, -y+1/2, z+1/2'
32 'x+1/2, y+1/2, z+1/2'
loop_
_atom_type_symbol
_atom_type_oxidation_number
Ba2+ 2
In3+ 3
Cl1- -1
O2- -2
loop_
_atom_site_label
_atom_site_type_symbol
_atom_site_symmetry_multiplicity
_atom_site_Wyckoff_symbol
_atom_site_fract_x
_atom_site_fract_y
_atom_site_fract_z
_atom_site_B_iso_or_equiv
_atom_site_occupancy
_atom_site_attached_hydrogens
Ba1 Ba2+ 2 b 0 0 0.5 0.76(3) 1. 0
Ba2 Ba2+ 4 e 0 0 0.3386(1) 0.40(2) 1. 0
In1 In3+ 4 e 0 0 0.0822(1) 0.17(2) 1. 0
Cl1 Cl1- 4 e 0 0 0.2053(2) 0.79(6) 1. 0
O1 O2- 8 g 0 0.5 0.0940(4) 0.57(12) 1. 0
O2 O2- 2 a 0 0 0 0.86(31) 1. 0
#End of TTdata_69636-ICSD