
data_69791-ICSD
_database_code_ICSD 69791
_audit_creation_date 1993-01-06
_audit_update_record 2016-02-01
_chemical_name_systematic 'Strontium palladium silicide'
_chemical_formula_structural 'Sr Pd Si'
_chemical_formula_sum 'Pd1 Si1 Sr1'
_chemical_name_structure_type LaIrSi
_exptl_crystal_density_diffrn 5.37
_cell_length_a 6.500(1)
_cell_length_b 6.500(1)
_cell_length_c 6.500(1)
_cell_angle_alpha 90.
_cell_angle_beta 90.(1)
_cell_angle_gamma 90.
_cell_volume 274.63
_cell_formula_units_Z 4
_symmetry_space_group_name_H-M 'P 21 3'
_symmetry_Int_Tables_number 198
_refine_ls_R_factor_all 0.044
loop_
_symmetry_equiv_pos_site_id
_symmetry_equiv_pos_as_xyz
1 '-z+1/2, -x, y+1/2'
2 '-y+1/2, -z, x+1/2'
3 '-x+1/2, -y, z+1/2'
4 '-z, x+1/2, -y+1/2'
5 '-y, z+1/2, -x+1/2'
6 '-x, y+1/2, -z+1/2'
7 'z+1/2, -x+1/2, -y'
8 'y+1/2, -z+1/2, -x'
9 'x+1/2, -y+1/2, -z'
10 'z, x, y'
11 'y, z, x'
12 'x, y, z'
loop_
_atom_type_symbol
_atom_type_oxidation_number
Sr0+ 0
Pd0+ 0
Si0+ 0
loop_
_atom_site_label
_atom_site_type_symbol
_atom_site_symmetry_multiplicity
_atom_site_Wyckoff_symbol
_atom_site_fract_x
_atom_site_fract_y
_atom_site_fract_z
_atom_site_B_iso_or_equiv
_atom_site_occupancy
_atom_site_attached_hydrogens
Sr1 Sr0+ 4 a 0.1307(1) 0.1307(1) 0.1307(1) 0.0185(10) 1. 0
Pd1 Pd0+ 4 a 0.4103(2) 0.4103(2) 0.4103(2) 0.0179(8) 1. 0
Si1 Si0+ 4 a 0.8372(8) 0.8372(8) 0.8372(8) 0.0184(33) 1. 0
