
#(C) 2017 by FIZ Karlsruhe - Leibniz Institute for Information Infrastructure.  All rights reserved.
data_69854-ICSD
_database_code_ICSD 69854
_audit_creation_date 1993-01-06
_chemical_name_systematic 'Barium heptathiodizirconate'
_chemical_formula_structural 'Ba3 (Zr2 S7)'
_chemical_formula_sum 'Ba3 S7 Zr2'
_exptl_crystal_density_diffrn 4.3
_publ_section_title

;
Preparation and crystal structures of new barium zirconium sulfides, Ba2ZrS4
and Ba3Zr2S7
;
loop_
_citation_id
_citation_journal_full
_citation_year
_citation_journal_volume
_citation_page_first
_citation_page_last
_citation_journal_id_ASTM
primary 'Journal of Solid State Chemistry' 1991 92 286 294 JSSCBI
loop_
_publ_author_name
'Saeki, M.'
'Yajima, Y.'
'Onoda, M.'
_cell_length_a 7.0697(2)
_cell_length_b 25.4923(7)
_cell_length_c 7.0269(2)
_cell_angle_alpha 90.
_cell_angle_beta 90.
_cell_angle_gamma 90.
_cell_volume 1266.41
_cell_formula_units_Z 4
_symmetry_space_group_name_H-M 'C c c m'
_symmetry_Int_Tables_number 66
_refine_ls_R_factor_all 0.04
loop_
_symmetry_equiv_pos_site_id
_symmetry_equiv_pos_as_xyz
1 '-x, y, z+1/2'
2 'x, -y, z+1/2'
3 'x, y, -z'
4 '-x, -y, -z'
5 'x, -y, -z+1/2'
6 '-x, y, -z+1/2'
7 '-x, -y, z'
8 'x, y, z'
9 '-x+1/2, y+1/2, z+1/2'
10 'x+1/2, -y+1/2, z+1/2'
11 'x+1/2, y+1/2, -z'
12 '-x+1/2, -y+1/2, -z'
13 'x+1/2, -y+1/2, -z+1/2'
14 '-x+1/2, y+1/2, -z+1/2'
15 '-x+1/2, -y+1/2, z'
16 'x+1/2, y+1/2, z'
loop_
_atom_type_symbol
_atom_type_oxidation_number
Ba2+ 2
Zr4+ 4
S2- -2
loop_
_atom_site_label
_atom_site_type_symbol
_atom_site_symmetry_multiplicity
_atom_site_Wyckoff_symbol
_atom_site_fract_x
_atom_site_fract_y
_atom_site_fract_z
_atom_site_B_iso_or_equiv
_atom_site_occupancy
_atom_site_attached_hydrogens
Ba1 Ba2+ 4 f 0.25 0.75 0 2.20(29) 1. 0
Ba2 Ba2+ 8 l 0.246(1) 0.9318(1) 0 2.20(9) 1. 0
Zr1 Zr4+ 8 l 0.261(2) 0.159(1) 0 0.9(1) 1. 0
S1 S2- 4 e 0.25 0.25 0 2.0(2) 1. 0
S2 S2- 8 h 0 0.159(1) 0.25 2.0(2) 1. 0
S3 S2- 8 l 0.219(4) 0.0520(5) 0 2.0(2) 1. 0
S4 S2- 8 h 0 0.350(1) 0.25 2.0(2) 1. 0
#End of TTdata_69854-ICSD