
data_70056-ICSD
_database_code_ICSD 70056
_audit_creation_date 1997-11-10
_audit_update_record 2011-02-01
_chemical_name_systematic 'Dicopper(I) germanium selenide'
_chemical_formula_structural 'Cu2 Ge Se3'
_chemical_formula_sum 'Cu2 Ge1 Se3'
_chemical_name_structure_type Cu2GeSe3
_exptl_crystal_density_diffrn 5.63
_cell_length_a 11.860(3)
_cell_length_b 3.960(1)
_cell_length_c 5.485(2)
_cell_angle_alpha 90.
_cell_angle_beta 90.
_cell_angle_gamma 90.
_cell_volume 257.61
_cell_formula_units_Z 2
_symmetry_space_group_name_H-M 'I m m 2'
_symmetry_Int_Tables_number 44
_refine_ls_R_factor_all 0.066
loop_
_symmetry_equiv_pos_site_id
_symmetry_equiv_pos_as_xyz
1 'x, -y, z'
2 '-x, y, z'
3 '-x, -y, z'
4 'x, y, z'
5 'x+1/2, -y+1/2, z+1/2'
6 '-x+1/2, y+1/2, z+1/2'
7 '-x+1/2, -y+1/2, z+1/2'
8 'x+1/2, y+1/2, z+1/2'
loop_
_atom_type_symbol
_atom_type_oxidation_number
Cu1+ 1
Ge4+ 4
Se2- -2
loop_
_atom_site_label
_atom_site_type_symbol
_atom_site_symmetry_multiplicity
_atom_site_Wyckoff_symbol
_atom_site_fract_x
_atom_site_fract_y
_atom_site_fract_z
_atom_site_B_iso_or_equiv
_atom_site_occupancy
_atom_site_attached_hydrogens
Cu1 Cu1+ 4 c 0.170(1) 0 0.251(2) . 1. 0
Ge1 Ge4+ 2 b 0 0.5 0.755(3) . 1. 0
Se1 Se2- 4 c 0.334(1) 0 0.001(2) . 1. 0
Se2 Se2- 2 a 0 0 0 . 1. 0
