
data_70057-ICSD
_database_code_ICSD 70057
_audit_creation_date 1997-11-10
_audit_update_record 2009-02-01
_chemical_name_systematic 'Dicopper silicon trisulfide'
_chemical_formula_structural 'Cu2 Si S3'
_chemical_formula_sum 'Cu2 S3 Si1'
_chemical_name_structure_type Na2SiO3
_exptl_crystal_density_diffrn 3.92
_cell_length_a 10.981(3)
_cell_length_b 6.416(2)
_cell_length_c 6.046(2)
_cell_angle_alpha 90.
_cell_angle_beta 90.
_cell_angle_gamma 90.
_cell_volume 425.97
_cell_formula_units_Z 4
_symmetry_space_group_name_H-M 'C m c 21'
_symmetry_Int_Tables_number 36
_refine_ls_R_factor_all 0.068
loop_
_symmetry_equiv_pos_site_id
_symmetry_equiv_pos_as_xyz
1 'x, -y, z+1/2'
2 '-x, -y, z+1/2'
3 '-x, y, z'
4 'x, y, z'
5 'x+1/2, -y+1/2, z+1/2'
6 '-x+1/2, -y+1/2, z+1/2'
7 '-x+1/2, y+1/2, z'
8 'x+1/2, y+1/2, z'
loop_
_atom_type_symbol
_atom_type_oxidation_number
Cu1+ 1
Si4+ 4
S2- -2
loop_
_atom_site_label
_atom_site_type_symbol
_atom_site_symmetry_multiplicity
_atom_site_Wyckoff_symbol
_atom_site_fract_x
_atom_site_fract_y
_atom_site_fract_z
_atom_site_B_iso_or_equiv
_atom_site_occupancy
_atom_site_attached_hydrogens
Cu1 Cu1+ 8 b 0.162(1) 0.839(1) 0.009(1) . 1. 0
Si1 Si4+ 4 a 0 0.332(3) 0 . 1. 0
S1 S2- 8 b 0.158(1) 0.814(1) 0.391(1) . 1. 0
S2 S2- 4 a 0 0.345(2) 0.379(1) . 1. 0
