
data_70060-ICSD
_database_code_ICSD 70060
_audit_creation_date 1997-11-10
_audit_update_record 1999-11-30
_chemical_name_systematic 'Palladium bismuth telluride (1/1/1)'
_chemical_formula_structural 'Pd Bi Te'
_chemical_formula_sum 'Bi1 Pd1 Te1'
_chemical_name_structure_type NiSSb
_chemical_name_mineral Michenerite
_exptl_crystal_density_diffrn 10.04
_cell_length_a 6.642(1)
_cell_length_b 6.642(1)
_cell_length_c 6.642(1)
_cell_angle_alpha 90.
_cell_angle_beta 90.
_cell_angle_gamma 90.
_cell_volume 293.02
_cell_formula_units_Z 4
_symmetry_space_group_name_H-M 'P 21 3'
_symmetry_Int_Tables_number 198
_refine_ls_R_factor_all 0.034
loop_
_symmetry_equiv_pos_site_id
_symmetry_equiv_pos_as_xyz
1 '-z+1/2, -x, y+1/2'
2 '-y+1/2, -z, x+1/2'
3 '-x+1/2, -y, z+1/2'
4 '-z, x+1/2, -y+1/2'
5 '-y, z+1/2, -x+1/2'
6 '-x, y+1/2, -z+1/2'
7 'z+1/2, -x+1/2, -y'
8 'y+1/2, -z+1/2, -x'
9 'x+1/2, -y+1/2, -z'
10 'z, x, y'
11 'y, z, x'
12 'x, y, z'
loop_
_atom_type_symbol
_atom_type_oxidation_number
Pd0+ 0
Te0+ 0
Bi0+ 0
loop_
_atom_site_label
_atom_site_type_symbol
_atom_site_symmetry_multiplicity
_atom_site_Wyckoff_symbol
_atom_site_fract_x
_atom_site_fract_y
_atom_site_fract_z
_atom_site_B_iso_or_equiv
_atom_site_occupancy
_atom_site_attached_hydrogens
Pd1 Pd0+ 4 a 0.0048(5) 0.0048(5) 0.0048(5) . 1. 0
Te1 Te0+ 4 a 0.6270(3) 0.6270(3) 0.6270(3) . 1. 0
Bi1 Bi0+ 4 a 0.3684(2) 0.3684(2) 0.3684(2) . 1. 0
loop_
_atom_site_aniso_label
_atom_site_aniso_type_symbol
_atom_site_aniso_U_11
_atom_site_aniso_U_22
_atom_site_aniso_U_33
_atom_site_aniso_U_12
_atom_site_aniso_U_13
_atom_site_aniso_U_23
Pd1 Pd0+ 0.0092(4) 0.0092(4) 0.0092(4) 0.0001(5) 0.0001(5) 0.0001(5)
Te1 Te0+ 0.0099(4) 0.0099(4) 0.0099(4) 0.0009(6) 0.0009(6) 0.0009(6)
Bi1 Bi0+ 0.0089(3) 0.0089(3) 0.0089(3) 0.0012(4) 0.0012(4) 0.0012(4)
