
#(C) 2017 by FIZ Karlsruhe - Leibniz Institute for Information Infrastructure.  All rights reserved.
data_710014-ICSD
_database_code_ICSD 710014
_audit_creation_date 2010-02-01
_chemical_name_systematic 'Barium hexasilicide'
_chemical_formula_structural 'Ba Si6'
_chemical_formula_sum 'Ba1 Si6'
_exptl_crystal_density_diffrn 3.66
_cell_measurement_temperature 293.
_publ_section_title
'Single Crystal Structure Refinement of Barium Hexasilicide, BaSi6'
loop_
_citation_id
_citation_journal_full
_citation_year
_citation_journal_volume
_citation_page_first
_citation_page_last
_citation_journal_id_ASTM
primary 'Zeitschrift fuer Kristallographie - New Crystal Structures' 2009 224
347 348 ZKNSFT
loop_
_publ_author_name
'Wosylus, A.'
'Demchyna, R.'
'Prots', Yu.'
'Schnelle, W.'
'Schwarz, U.'
_cell_length_a 4.4789(2)
_cell_length_b 10.3679(5)
_cell_length_c 11.9634(8)
_cell_angle_alpha 90.
_cell_angle_beta 90.
_cell_angle_gamma 90.
_cell_volume 555.54
_cell_formula_units_Z 4
_symmetry_space_group_name_H-M 'C m c m'
_symmetry_Int_Tables_number 63
_refine_ls_R_factor_all 0.04
loop_
_symmetry_equiv_pos_site_id
_symmetry_equiv_pos_as_xyz
1 '-x, y, -z+1/2'
2 '-x, -y, z+1/2'
3 '-x, y, z'
4 '-x, -y, -z'
5 'x, -y, z+1/2'
6 'x, y, -z+1/2'
7 'x, -y, -z'
8 'x, y, z'
9 '-x+1/2, y+1/2, -z+1/2'
10 '-x+1/2, -y+1/2, z+1/2'
11 '-x+1/2, y+1/2, z'
12 '-x+1/2, -y+1/2, -z'
13 'x+1/2, -y+1/2, z+1/2'
14 'x+1/2, y+1/2, -z+1/2'
15 'x+1/2, -y+1/2, -z'
16 'x+1/2, y+1/2, z'
loop_
_atom_type_symbol
_atom_type_oxidation_number
Ba2+ 2
Si0+ -0.33
loop_
_atom_site_label
_atom_site_type_symbol
_atom_site_symmetry_multiplicity
_atom_site_Wyckoff_symbol
_atom_site_fract_x
_atom_site_fract_y
_atom_site_fract_z
_atom_site_B_iso_or_equiv
_atom_site_occupancy
_atom_site_attached_hydrogens
Ba1 Ba2+ 4 c 0 0.27449(5) 0.25 0.01271(16) 1 0
Si1 Si0+ 8 f 0 0.24696(16) 0.53739(14) 0.0109(4) 1 0
Si2 Si0+ 8 f 0 0.55896(17) 0.35318(14) 0.0109(4) 1 0
Si3 Si0+ 8 f 0 0.02354(17) 0.59819(14) 0.0117(4) 1 0
loop_
_atom_site_aniso_label
_atom_site_aniso_type_symbol
_atom_site_aniso_U_11
_atom_site_aniso_U_22
_atom_site_aniso_U_33
_atom_site_aniso_U_12
_atom_site_aniso_U_13
_atom_site_aniso_U_23
Ba1 Ba2+ 0.0155(3) 0.0110(3) 0.0115(3) 0. 0. 0.
Si1 Si0+ 0.0107(8) 0.0121(10) 0.0100(9) 0. 0. -0.0006(7)
Si2 Si0+ 0.0126(9) 0.0071(9) 0.0132(9) 0. 0. -0.0005(7)
Si3 Si0+ 0.0113(8) 0.0104(10) 0.0135(9) 0. 0. -0.0004(7)
#End of TTdata_710014-ICSD