
#(C) 2017 by FIZ Karlsruhe - Leibniz Institute for Information Infrastructure.  All rights reserved.
data_71143-ICSD
_database_code_ICSD 71143
_audit_creation_date 1993-01-06
_audit_update_record 2012-02-01
_chemical_name_systematic 'Tantalum sulfide (3/2)'
_chemical_formula_structural 'Ta3 S2'
_chemical_formula_sum 'S2 Ta3'
_chemical_name_structure_type Ta3S2
_exptl_crystal_density_diffrn 11.16
_cell_measurement_temperature 294.
_publ_section_title

;
Single-crystal structure of Ta3S2. Structure and bonding in Ta6Sn(n=1,3,4,5?).
Pentagonal-antiprismatic chain compounds
;
loop_
_citation_id
_citation_journal_full
_citation_year
_citation_journal_volume
_citation_page_first
_citation_page_last
_citation_journal_id_ASTM
primary 'Inorganic Chemistry' 1991 30 159 164 INOCAJ
loop_
_publ_author_name
'Kim, S.-J.'
'Nanjundaswamy, K.S.'
'Hughbanks, T.'
_cell_length_a 7.480(2)
_cell_length_b 17.232(3)
_cell_length_c 5.608(1)
_cell_angle_alpha 90.
_cell_angle_beta 90.
_cell_angle_gamma 90.
_cell_volume 722.85
_cell_formula_units_Z 8
_symmetry_space_group_name_H-M 'A b m 2'
_symmetry_Int_Tables_number 39
_refine_ls_R_factor_all 0.027
loop_
_symmetry_equiv_pos_site_id
_symmetry_equiv_pos_as_xyz
1 'x, -y+1/2, z'
2 '-x, y+1/2, z'
3 '-x, -y, z'
4 'x, y, z'
5 'x, -y, z+1/2'
6 '-x, y, z+1/2'
7 '-x, -y+1/2, z+1/2'
8 'x, y+1/2, z+1/2'
loop_
_atom_type_symbol
_atom_type_oxidation_number
Ta1+ 1.333
S2- -2
loop_
_atom_site_label
_atom_site_type_symbol
_atom_site_symmetry_multiplicity
_atom_site_Wyckoff_symbol
_atom_site_fract_x
_atom_site_fract_y
_atom_site_fract_z
_atom_site_B_iso_or_equiv
_atom_site_occupancy
_atom_site_attached_hydrogens
Ta1 Ta1+ 8 d 0.71896(8) 0.16619(3) 0 . 1. 0
Ta2 Ta1+ 8 d 0.10455(7) 0.10730(3) 0.9938(3) . 1. 0
Ta3 Ta1+ 4 c 0.6551(1) 0.25 0.4794(3) . 1. 0
Ta4 Ta1+ 4 c 0.9942(3) 0.25 0.7448(4) . 1. 0
S1 S2- 8 d 0.8270(6) 0.0398(2) 0.8683(8) . 1. 0
S2 S2- 8 d 0.5843(5) 0.1154(3) 0.3711(8) . 1. 0
loop_
_atom_site_aniso_label
_atom_site_aniso_type_symbol
_atom_site_aniso_U_11
_atom_site_aniso_U_22
_atom_site_aniso_U_33
_atom_site_aniso_U_12
_atom_site_aniso_U_13
_atom_site_aniso_U_23
Ta1 Ta1+ 0.0023(2) 0.0038(2) 0.0061(2) -.0005(2) -.0003(5) -.0002(2)
Ta2 Ta1+ 0.0025(2) 0.0038(2) 0.0056(2) 0.0000(2) 0.0005(5) -.0006(2)
Ta3 Ta1+ 0.0029(3) 0.0046(3) 0.0060(4) 0 0.0000(5) 0
Ta4 Ta1+ 0.0020(3) 0.0032(3) 0.0055(3) 0 0.0003(5) 0
S1 S2- 0.009(2) 0.005(2) 0.010(2) 0.002(1) -.001(2) 0.000(1)
S2 S2- 0.003(2) 0.010(2) 0.010(2) -.001(2) 0.000(1) -.001(2)
#End of TTdata_71143-ICSD