
#(C) 2017 by FIZ Karlsruhe - Leibniz Institute for Information Infrastructure.  All rights reserved.
data_71292-ICSD
_database_code_ICSD 71292
_audit_creation_date 1993-01-06
_chemical_name_systematic 'Tantalum platinum telluride (1/1/5)'
_chemical_formula_structural 'Ta Pt Te5'
_chemical_formula_sum 'Pt1 Ta1 Te5'
_chemical_name_structure_type NiNbTe5
_exptl_crystal_density_diffrn 8.83
_cell_measurement_temperature 111.
_publ_section_title

;
Synthesis, structure and physical properties of the new layered ternary
telluride TaPtTe5
;
loop_
_citation_id
_citation_journal_full
_citation_year
_citation_journal_volume
_citation_page_first
_citation_page_last
_citation_journal_id_ASTM
primary 'Journal of Solid State Chemistry' 1991 92 352 361 JSSCBI
loop_
_publ_author_name
'Mar, A.'
'Ibers, J.A.'
_cell_length_a 3.729(4)
_cell_length_b 13.231(11)
_cell_length_c 15.452(10)
_cell_angle_alpha 90.
_cell_angle_beta 90.
_cell_angle_gamma 90.
_cell_volume 762.38
_cell_formula_units_Z 4
_symmetry_space_group_name_H-M 'C m c m'
_symmetry_Int_Tables_number 63
_refine_ls_R_factor_all 0.07
loop_
_symmetry_equiv_pos_site_id
_symmetry_equiv_pos_as_xyz
1 '-x, y, -z+1/2'
2 '-x, -y, z+1/2'
3 '-x, y, z'
4 '-x, -y, -z'
5 'x, -y, z+1/2'
6 'x, y, -z+1/2'
7 'x, -y, -z'
8 'x, y, z'
9 '-x+1/2, y+1/2, -z+1/2'
10 '-x+1/2, -y+1/2, z+1/2'
11 '-x+1/2, y+1/2, z'
12 '-x+1/2, -y+1/2, -z'
13 'x+1/2, -y+1/2, z+1/2'
14 'x+1/2, y+1/2, -z+1/2'
15 'x+1/2, -y+1/2, -z'
16 'x+1/2, y+1/2, z'
loop_
_atom_type_symbol
_atom_type_oxidation_number
Ta0+ 0
Pt0+ 0
Te0+ 0
loop_
_atom_site_label
_atom_site_type_symbol
_atom_site_symmetry_multiplicity
_atom_site_Wyckoff_symbol
_atom_site_fract_x
_atom_site_fract_y
_atom_site_fract_z
_atom_site_B_iso_or_equiv
_atom_site_occupancy
_atom_site_attached_hydrogens
Ta1 Ta0+ 4 c 0.5 0.98755(14) 0.25 . 1. 0
Pt1 Pt0+ 4 a 0 0 0 . 1. 0
Te1 Te0+ 8 f 0 0.10104(15) 0.14796(10) . 1. 0
Te2 Te0+ 8 f 0.5 0.11081(15) 0.58024(10) . 1. 0
Te3 Te0+ 4 c 0 0.17277(21) 0.75 . 1. 0
loop_
_atom_site_aniso_label
_atom_site_aniso_type_symbol
_atom_site_aniso_U_11
_atom_site_aniso_U_22
_atom_site_aniso_U_33
_atom_site_aniso_U_12
_atom_site_aniso_U_13
_atom_site_aniso_U_23
Ta1 Ta0+ 0.01379(98) 0.01313(73) 0.00142(44) 0 0 0
Pt1 Pt0+ 0.01507(93) 0.0146(7) 0.00262(41) 0 0 0
Te1 Te0+ 0.0145(11) 0.01480(82) 0.00296(48) 0 0 0.00021(55)
Te2 Te0+ 0.0142(11) 0.01488(82) 0.00366(49) 0 0 0.00000(58)
Te3 Te0+ 0.0166(16) 0.0121(11) 0.00552(80) 0 0 0
#End of TTdata_71292-ICSD