
#(C) 2017 by FIZ Karlsruhe - Leibniz Institute for Information Infrastructure.  All rights reserved.
data_71320-ICSD
_database_code_ICSD 71320
_audit_creation_date 1993-01-06
_chemical_name_systematic 'Tristrontium divanadium(IV) oxide'
_chemical_formula_structural 'Sr3 V2 O7'
_chemical_formula_sum 'O7 Sr3 V2'
_chemical_name_structure_type Sr3Ti2O7
_exptl_crystal_density_diffrn 5.32
_publ_section_title

;
Crystal structure and physical properties of layered perovskite compound
Sr3V2O7.01
;
loop_
_citation_id
_citation_journal_full
_citation_year
_citation_journal_volume
_citation_page_first
_citation_page_last
_citation_journal_id_ASTM
primary 'Materials Research Bulletin' 1991 26 1 9 MRBUAC
loop_
_publ_author_name
'Suzuki, N.'
'Noritake, T.'
'Yamamoto, N.'
'Hioki, T.'
_cell_length_a 3.8331(7)
_cell_length_b 3.8331(7)
_cell_length_c 20.2459(6)
_cell_angle_alpha 90.
_cell_angle_beta 90.
_cell_angle_gamma 90.
_cell_volume 297.47
_cell_formula_units_Z 2
_symmetry_space_group_name_H-M 'I 4/m m m'
_symmetry_Int_Tables_number 139
_refine_ls_R_factor_all 0.043
loop_
_symmetry_equiv_pos_site_id
_symmetry_equiv_pos_as_xyz
1 'y, x, -z'
2 '-y, -x, -z'
3 '-y, x, -z'
4 'y, -x, -z'
5 '-x, y, -z'
6 'x, -y, -z'
7 'x, y, -z'
8 '-x, -y, -z'
9 '-y, -x, z'
10 'y, x, z'
11 'y, -x, z'
12 '-y, x, z'
13 'x, -y, z'
14 '-x, y, z'
15 '-x, -y, z'
16 'x, y, z'
17 'y+1/2, x+1/2, -z+1/2'
18 '-y+1/2, -x+1/2, -z+1/2'
19 '-y+1/2, x+1/2, -z+1/2'
20 'y+1/2, -x+1/2, -z+1/2'
21 '-x+1/2, y+1/2, -z+1/2'
22 'x+1/2, -y+1/2, -z+1/2'
23 'x+1/2, y+1/2, -z+1/2'
24 '-x+1/2, -y+1/2, -z+1/2'
25 '-y+1/2, -x+1/2, z+1/2'
26 'y+1/2, x+1/2, z+1/2'
27 'y+1/2, -x+1/2, z+1/2'
28 '-y+1/2, x+1/2, z+1/2'
29 'x+1/2, -y+1/2, z+1/2'
30 '-x+1/2, y+1/2, z+1/2'
31 '-x+1/2, -y+1/2, z+1/2'
32 'x+1/2, y+1/2, z+1/2'
loop_
_atom_type_symbol
_atom_type_oxidation_number
Sr2+ 2
V4+ 4
O2- -2
loop_
_atom_site_label
_atom_site_type_symbol
_atom_site_symmetry_multiplicity
_atom_site_Wyckoff_symbol
_atom_site_fract_x
_atom_site_fract_y
_atom_site_fract_z
_atom_site_B_iso_or_equiv
_atom_site_occupancy
_atom_site_attached_hydrogens
Sr1 Sr2+ 2 b 0 0 0.5 0.1(2) 1. 0
Sr2 Sr2+ 4 e 0 0 0.3148(3) 0.5(2) 1. 0
V1 V4+ 4 e 0 0 0.0971(7) 0.7(2) 1. 0
O1 O2- 2 a 0 0 0 0.5(4) 1. 0
O2 O2- 4 e 0 0 0.190(2) 0.5(4) 1. 0
O3 O2- 8 g 0 0.5 0.096(2) 0.5(4) 1. 0
#End of TTdata_71320-ICSD