
data_71338-ICSD
_database_code_ICSD 71338
_audit_creation_date 1993-01-06
_chemical_name_systematic 'Tin selenide'
_chemical_formula_structural 'Sn Se'
_chemical_formula_sum 'Se1 Sn1'
_chemical_name_structure_type LaS
_exptl_crystal_density_diffrn 3.02
_cell_length_a 5.928(1)
_cell_length_b 5.970(2)
_cell_length_c 12.282(2)
_cell_angle_alpha 90.
_cell_angle_beta 90.
_cell_angle_gamma 90.
_cell_volume 434.66
_cell_formula_units_Z 4
_symmetry_space_group_name_H-M 'C m 2 a'
_symmetry_Int_Tables_number 39
loop_
_symmetry_equiv_pos_site_id
_symmetry_equiv_pos_as_xyz
1 '-x+1/2, y, z'
2 'x+1/2, y, -z'
3 '-x, y, -z'
4 'x, y, z'
5 '-x, y+1/2, z'
6 'x, y+1/2, -z'
7 '-x+1/2, y+1/2, -z'
8 'x+1/2, y+1/2, z'
loop_
_atom_type_symbol
_atom_type_oxidation_number
Sn2+ 2
Se2- -2
loop_
_atom_site_label
_atom_site_type_symbol
_atom_site_symmetry_multiplicity
_atom_site_Wyckoff_symbol
_atom_site_fract_x
_atom_site_fract_y
_atom_site_fract_z
_atom_site_B_iso_or_equiv
_atom_site_occupancy
_atom_site_attached_hydrogens
Sn1 Sn2+ 4 c 0.25 0 0.63 . 1. 0
Se1 Se2- 4 c 0.25 0 0.41 . 1. 0
