
#(C) 2017 by FIZ Karlsruhe - Leibniz Institute for Information Infrastructure.  All rights reserved.
data_71524-ICSD
_database_code_ICSD 71524
_audit_creation_date 1993-01-06
_chemical_name_systematic 'Yttrium iridium iodide (3/1/3)'
_chemical_formula_structural 'Y3 Ir I3'
_chemical_formula_sum 'I3 Ir1 Y3'
_chemical_name_structure_type Gd3MnI3
_exptl_crystal_density_diffrn 6.29
_cell_measurement_temperature 296.
_publ_section_title

;
Chains of centered metal clusters with a novel range of distortions:
Pr3I4/3Ru, Y3I3Ru and Y3I3Ir
;
loop_
_citation_id
_citation_journal_full
_citation_year
_citation_journal_volume
_citation_page_first
_citation_page_last
_citation_journal_id_ASTM
primary 'Inorganic Chemistry' 1992 31 1389 1394 INOCAJ
loop_
_publ_author_name
'Payne, M.W.'
'Dorhout, P.K.'
'Kim, S.-J.'
'Hughbanks, T.R.'
'Corbett, J.D.'
_cell_length_a 8.6929(7)
_cell_length_b 4.2388(4)
_cell_length_c 12.092(2)
_cell_angle_alpha 90.
_cell_angle_beta 94.73(1)
_cell_angle_gamma 90.
_cell_volume 444.04
_cell_formula_units_Z 2
_symmetry_space_group_name_H-M 'P 1 21/m 1'
_symmetry_Int_Tables_number 11
_refine_ls_R_factor_all 0.065
loop_
_symmetry_equiv_pos_site_id
_symmetry_equiv_pos_as_xyz
1 'x, -y+1/2, z'
2 '-x, -y, -z'
3 '-x, y+1/2, -z'
4 'x, y, z'
loop_
_atom_type_symbol
_atom_type_oxidation_number
Y0+ 0
I0+ 0
Ir0+ 0
loop_
_atom_site_label
_atom_site_type_symbol
_atom_site_symmetry_multiplicity
_atom_site_Wyckoff_symbol
_atom_site_fract_x
_atom_site_fract_y
_atom_site_fract_z
_atom_site_B_iso_or_equiv
_atom_site_occupancy
_atom_site_attached_hydrogens
Y1 Y0+ 2 e 0.1449(2) 0.25 0.8684(1) . 1. 0
Y2 Y0+ 2 e 0.1003(2) 0.25 0.3203(1) . 1. 0
Y3 Y0+ 2 e 0.2543(2) 0.75 0.1020(1) . 1. 0
I1 I0+ 2 e 0.4322(1) 0.75 0.86384(8) . 1. 0
I2 I0+ 2 e 0.3582(1) 0.75 0.36873(8) . 1. 0
I3 I0+ 2 e 0.1459(1) 0.25 0.60448(7) . 1. 0
Ir1 Ir0+ 2 e 0.04785(6) 0.25 0.09249(4) . 1. 0
loop_
_atom_site_aniso_label
_atom_site_aniso_type_symbol
_atom_site_aniso_U_11
_atom_site_aniso_U_22
_atom_site_aniso_U_33
_atom_site_aniso_U_12
_atom_site_aniso_U_13
_atom_site_aniso_U_23
Y1 Y0+ 0.0073(6) 0.0118(6) 0.0054(6) 0 0.0029(4) 0
Y2 Y0+ 0.0117(6) 0.0132(7) 0.0060(6) 0 0.0024(5) 0
Y3 Y0+ 0.0074(6) 0.0123(7) 0.0085(6) 0 0.0042(5) 0
I1 I0+ 0.0091(4) 0.0178(5) 0.0167(5) 0 0.0051(3) 0
I2 I0+ 0.0116(5) 0.0177(5) 0.0124(4) 0 0.0007(3) 0
I3 I0+ 0.0147(5) 0.0185(5) 0.0072(4) 0 0.0050(3) 0
Ir1 Ir0+ 0.0068(3) 0.0085(3) 0.0046(2) 0 0.0037(2) 0
#End of TTdata_71524-ICSD