
#(C) 2017 by FIZ Karlsruhe - Leibniz Institute for Information Infrastructure.  All rights reserved.
data_71603-ICSD
_database_code_ICSD 71603
_audit_creation_date 1993-01-06
_audit_update_record 2000-07-15
_chemical_name_systematic 'Tribarium pentaoxodibromodiindate'
_chemical_formula_structural 'Ba3 (In2 O5 Br2)'
_chemical_formula_sum 'Ba3 Br2 In2 O5'
_chemical_name_structure_type Ca3Fe2O5Cl2
_exptl_crystal_density_diffrn 6.25
_publ_section_title
'Ueber ein weiteres Halogeno-Oxoindat Ba3 In2 O5 Br2 mit Sr3 Ti2 O7-Struktur'
loop_
_citation_id
_citation_journal_full
_citation_year
_citation_journal_volume
_citation_page_first
_citation_page_last
_citation_journal_id_ASTM
primary 'Journal of Alloys and Compounds' 1992 183 24 29 JALCEU
loop_
_publ_author_name
'Abed, M.'
'Mueller Buschbaum, H.'
_cell_length_a 4.2546(8)
_cell_length_b 4.2546(8)
_cell_length_c 25.8552(56)
_cell_angle_alpha 90.
_cell_angle_beta 90.
_cell_angle_gamma 90.
_cell_volume 468.02
_cell_formula_units_Z 2
_symmetry_space_group_name_H-M 'I 4/m m m'
_symmetry_Int_Tables_number 139
_refine_ls_R_factor_all 0.082
loop_
_symmetry_equiv_pos_site_id
_symmetry_equiv_pos_as_xyz
1 'y, x, -z'
2 '-y, -x, -z'
3 '-y, x, -z'
4 'y, -x, -z'
5 '-x, y, -z'
6 'x, -y, -z'
7 'x, y, -z'
8 '-x, -y, -z'
9 '-y, -x, z'
10 'y, x, z'
11 'y, -x, z'
12 '-y, x, z'
13 'x, -y, z'
14 '-x, y, z'
15 '-x, -y, z'
16 'x, y, z'
17 'y+1/2, x+1/2, -z+1/2'
18 '-y+1/2, -x+1/2, -z+1/2'
19 '-y+1/2, x+1/2, -z+1/2'
20 'y+1/2, -x+1/2, -z+1/2'
21 '-x+1/2, y+1/2, -z+1/2'
22 'x+1/2, -y+1/2, -z+1/2'
23 'x+1/2, y+1/2, -z+1/2'
24 '-x+1/2, -y+1/2, -z+1/2'
25 '-y+1/2, -x+1/2, z+1/2'
26 'y+1/2, x+1/2, z+1/2'
27 'y+1/2, -x+1/2, z+1/2'
28 '-y+1/2, x+1/2, z+1/2'
29 'x+1/2, -y+1/2, z+1/2'
30 '-x+1/2, y+1/2, z+1/2'
31 '-x+1/2, -y+1/2, z+1/2'
32 'x+1/2, y+1/2, z+1/2'
loop_
_atom_type_symbol
_atom_type_oxidation_number
Ba2+ 2
In3+ 3
Br1- -1
O2- -2
loop_
_atom_site_label
_atom_site_type_symbol
_atom_site_symmetry_multiplicity
_atom_site_Wyckoff_symbol
_atom_site_fract_x
_atom_site_fract_y
_atom_site_fract_z
_atom_site_B_iso_or_equiv
_atom_site_occupancy
_atom_site_attached_hydrogens
Ba1 Ba2+ 2 b 0 0 0.5 1.18(8) 1. 0
Ba2 Ba2+ 4 e 0 0 0.3448(1) 0.71(8) 1. 0
In1 In3+ 4 e 0 0 0.0794(2) 0.47(8) 1. 0
Br1 Br1- 4 e 0 0 0.2048(3) 1.34(8) 1. 0
O1 O2- 8 g 0 0.5 0.0896(11) 1.3(5) 1. 0
O2 O2- 2 a 0 0 0 1.7(1) 1. 0
#End of TTdata_71603-ICSD