
#(C) 2017 by FIZ Karlsruhe - Leibniz Institute for Information Infrastructure.  All rights reserved.
data_71936-ICSD
_database_code_ICSD 71936
_audit_creation_date 1993-08-22
_chemical_name_systematic 'Barium hafnium sulfide (5/4/13)'
_chemical_formula_structural 'Ba5 Hf4 S13'
_chemical_formula_sum 'Ba5 Hf4 S13'
_exptl_crystal_density_diffrn 5.84
_publ_section_title

;
Synthesis and structure of Ba6Hf5S16 and Ba5Hf4S13:the n=5 and 4 members of
the An+1BnX3n+1 Ruddlesden-Popper phases
;
loop_
_citation_id
_citation_journal_full
_citation_year
_citation_journal_volume
_citation_page_first
_citation_page_last
_citation_journal_id_ASTM
primary 'Inorganic Chemistry' 1992 31 1788 1791 INOCAJ
loop_
_publ_author_name
'Chen, B.-H.'
'Eichhorn, B.W.'
'Fanwick, P.E.'
_cell_length_a 6.977(1)
_cell_length_b 7.006(2)
_cell_length_c 42.280(5)
_cell_angle_alpha 90.
_cell_angle_beta 90.
_cell_angle_gamma 90.
_cell_volume 2066.68
_cell_formula_units_Z 4
_symmetry_space_group_name_H-M 'F m m m'
_symmetry_Int_Tables_number 69
_refine_ls_R_factor_all 0.054
loop_
_symmetry_equiv_pos_site_id
_symmetry_equiv_pos_as_xyz
1 'x, y, -z'
2 'x, -y, z'
3 '-x, y, z'
4 '-x, -y, -z'
5 '-x, -y, z'
6 '-x, y, -z'
7 'x, -y, -z'
8 'x, y, z'
9 'x, y+1/2, -z+1/2'
10 'x, -y+1/2, z+1/2'
11 '-x, y+1/2, z+1/2'
12 '-x, -y+1/2, -z+1/2'
13 '-x, -y+1/2, z+1/2'
14 '-x, y+1/2, -z+1/2'
15 'x, -y+1/2, -z+1/2'
16 'x, y+1/2, z+1/2'
17 'x+1/2, y, -z+1/2'
18 'x+1/2, -y, z+1/2'
19 '-x+1/2, y, z+1/2'
20 '-x+1/2, -y, -z+1/2'
21 '-x+1/2, -y, z+1/2'
22 '-x+1/2, y, -z+1/2'
23 'x+1/2, -y, -z+1/2'
24 'x+1/2, y, z+1/2'
25 'x+1/2, y+1/2, -z'
26 'x+1/2, -y+1/2, z'
27 '-x+1/2, y+1/2, z'
28 '-x+1/2, -y+1/2, -z'
29 '-x+1/2, -y+1/2, z'
30 '-x+1/2, y+1/2, -z'
31 'x+1/2, -y+1/2, -z'
32 'x+1/2, y+1/2, z'
loop_
_atom_type_symbol
_atom_type_oxidation_number
Hf4+ 4
Ba2+ 2
S2- -2
loop_
_atom_site_label
_atom_site_type_symbol
_atom_site_symmetry_multiplicity
_atom_site_Wyckoff_symbol
_atom_site_fract_x
_atom_site_fract_y
_atom_site_fract_z
_atom_site_B_iso_or_equiv
_atom_site_occupancy
_atom_site_attached_hydrogens
Hf1 Hf4+ 8 i 0 0 0.05496(2) . 1. 0
Hf2 Hf4+ 8 i 0 0 0.16578(2) . 1. 0
Ba1 Ba2+ 4 b 0 0 0.5 . 1. 0
Ba2 Ba2+ 8 i 0 0 0.28839(3) . 1. 0
Ba3 Ba2+ 8 i 0 0 0.39076(4) . 1. 0
S1 S2- 4 a 0 0 0 . 1. 0
S2 S2- 8 i 0 0 0.1094(2) . 1. 0
S3 S2- 8 i 0 0 0.2203(2) . 1. 0
S4 S2- 16 j 0.25 0.25 0.0549(3) . 1. 0
S5 S2- 16 j 0.25 0.25 0.1632(2) . 1. 0
loop_
_atom_site_aniso_label
_atom_site_aniso_type_symbol
_atom_site_aniso_B_11
_atom_site_aniso_B_22
_atom_site_aniso_B_33
_atom_site_aniso_B_12
_atom_site_aniso_B_13
_atom_site_aniso_B_23
Hf1 Hf4+ 0.42(4) 0.24(3) 0.74(3) 0 0 0
Hf2 Hf4+ 0.67(4) 0.58(4) 0.81(3) 0 0 0
Ba1 Ba2+ 5.9(2) 2.4(1) 1.10(9) 0 0 0
Ba2 Ba2+ 1.19(7) 2.01(7) 0.62(5) 0 0 0
Ba3 Ba2+ 1.66(7) 0.89(6) 1.29(5) 0 0 0
S1 S2- 3.9(8) 11.(1) 0.4(3) 0 0 0
S2 S2- 2.9(5) 7.6(8) 1.0(3) 0 0 0
S3 S2- 2.0(4) 4.9(5) 0.4(2) 0 0 0
S4 S2- 8.4(5) 8.8(5) 8.0(7) -8.3(3) 0 0
S5 S2- 1.0(2) 0.5(2) 4.8(3) -.2(2) 0 0
#End of TTdata_71936-ICSD