
#(C) 2017 by FIZ Karlsruhe - Leibniz Institute for Information Infrastructure.  All rights reserved.
data_72118-ICSD
_database_code_ICSD 72118
_audit_creation_date 1993-08-22
_chemical_name_systematic 'Tricalcium trinitridovanadate(III)'
_chemical_formula_structural 'Ca3 (V N3)'
_chemical_formula_sum 'Ca3 N3 V1'
_chemical_name_structure_type Ca3CrN3
_exptl_crystal_density_diffrn 3.15
_cell_measurement_temperature 298.
_publ_section_title
'Synthesis and characterization of a new ternary nitride, Ca3VN3'
loop_
_citation_id
_citation_journal_full
_citation_year
_citation_journal_volume
_citation_page_first
_citation_page_last
_citation_journal_id_ASTM
primary 'Journal of Solid State Chemistry' 1992 100 401 401 JSSCBI
loop_
_publ_author_name
'Vennos, D.A.'
'DiSalvo, F.J.'
_cell_length_a 8.544
_cell_length_b 10.38
_cell_length_c 5.064
_cell_angle_alpha 90.
_cell_angle_beta 90.
_cell_angle_gamma 90.
_cell_volume 449.11
_cell_formula_units_Z 4
_symmetry_space_group_name_H-M 'C m c m'
_symmetry_Int_Tables_number 63
_refine_ls_R_factor_all 0.032
loop_
_symmetry_equiv_pos_site_id
_symmetry_equiv_pos_as_xyz
1 '-x, y, -z+1/2'
2 '-x, -y, z+1/2'
3 '-x, y, z'
4 '-x, -y, -z'
5 'x, -y, z+1/2'
6 'x, y, -z+1/2'
7 'x, -y, -z'
8 'x, y, z'
9 '-x+1/2, y+1/2, -z+1/2'
10 '-x+1/2, -y+1/2, z+1/2'
11 '-x+1/2, y+1/2, z'
12 '-x+1/2, -y+1/2, -z'
13 'x+1/2, -y+1/2, z+1/2'
14 'x+1/2, y+1/2, -z+1/2'
15 'x+1/2, -y+1/2, -z'
16 'x+1/2, y+1/2, z'
loop_
_atom_type_symbol
_atom_type_oxidation_number
V3+ 3
N3- -3
Ca2+ 2
loop_
_atom_site_label
_atom_site_type_symbol
_atom_site_symmetry_multiplicity
_atom_site_Wyckoff_symbol
_atom_site_fract_x
_atom_site_fract_y
_atom_site_fract_z
_atom_site_B_iso_or_equiv
_atom_site_occupancy
_atom_site_attached_hydrogens
V1 V3+ 4 c 0 0.3028 0.25 . 1. 0
N1 N3- 4 c 0 0.127 0.25 . 1. 0
N2 N3- 8 g 0.8079 0.3747 0.25 . 1. 0
Ca1 Ca2+ 4 c 0 0.1085 0.75 . 1. 0
Ca2 Ca2+ 8 g 0.2139 0.3841 0.75 . 1. 0
#End of TTdata_72118-ICSD