
#(C) 2017 by FIZ Karlsruhe - Leibniz Institute for Information Infrastructure.  All rights reserved.
data_72411-ICSD
_database_code_ICSD 72411
_audit_creation_date 1994-01-19
_chemical_name_systematic 'Manganese copper(I) phosphide'
_chemical_formula_structural 'Mn Cu P'
_chemical_formula_sum 'Cu1 Mn1 P1'
_chemical_name_structure_type TiNiSi-MgSrSi
_exptl_crystal_density_diffrn 5.95
_publ_section_title
'Darstellung und Kristallstruktur der Verbindungen MnCuX (X=P, As, PxAs1-x)'
loop_
_citation_id
_citation_journal_full
_citation_year
_citation_journal_volume
_citation_page_first
_citation_page_last
_citation_journal_id_ASTM
primary 'Zeitschrift fuer Naturforschung, B: Chemical Sciences' 1992 47 925 928
ZNBSEN
loop_
_publ_author_name
'Muendelein, J.'
'Schuster, H.U.'
_cell_length_a 6.3187(7)
_cell_length_b 3.7239(5)
_cell_length_c 7.0882(9)
_cell_angle_alpha 90.
_cell_angle_beta 90.
_cell_angle_gamma 90.
_cell_volume 166.79
_cell_formula_units_Z 4
_symmetry_space_group_name_H-M 'P n m a'
_symmetry_Int_Tables_number 62
_refine_ls_R_factor_all 0.066
loop_
_symmetry_equiv_pos_site_id
_symmetry_equiv_pos_as_xyz
1 'x+1/2, y, -z+1/2'
2 'x, -y+1/2, z'
3 '-x+1/2, y+1/2, z+1/2'
4 '-x, -y, -z'
5 '-x+1/2, -y, z+1/2'
6 '-x, y+1/2, -z'
7 'x+1/2, -y+1/2, -z+1/2'
8 'x, y, z'
loop_
_atom_type_symbol
_atom_type_oxidation_number
Mn2+ 2
Cu1+ 1
P3- -3
loop_
_atom_site_label
_atom_site_type_symbol
_atom_site_symmetry_multiplicity
_atom_site_Wyckoff_symbol
_atom_site_fract_x
_atom_site_fract_y
_atom_site_fract_z
_atom_site_B_iso_or_equiv
_atom_site_occupancy
_atom_site_attached_hydrogens
Mn1 Mn2+ 4 c 0.5376(4) 0.25 0.6709(3) . 1. 0
Cu1 Cu1+ 4 c 0.6282(3) 0.25 0.0610(2) . 1. 0
P1 P3- 4 c 0.2492(6) 0.25 0.1245(5) . 1. 0
loop_
_atom_site_aniso_label
_atom_site_aniso_type_symbol
_atom_site_aniso_U_11
_atom_site_aniso_U_22
_atom_site_aniso_U_33
_atom_site_aniso_U_12
_atom_site_aniso_U_13
_atom_site_aniso_U_23
Mn1 Mn2+ 0.0147(9) 0.0099(7) 0.0109(8) 0 -.0004(9) 0
Cu1 Cu1+ 0.0164(7) 0.0078(9) 0.0106(5) 0 -.0016(4) 0
P1 P3- 0.0080(8) 0.0096(7) 0.0078(4) 0 -.0025(12) 0
#End of TTdata_72411-ICSD