
#(C) 2017 by FIZ Karlsruhe - Leibniz Institute for Information Infrastructure.  All rights reserved.
data_72569-ICSD
_database_code_ICSD 72569
_audit_creation_date 1994-01-19
_audit_update_record 2008-08-01
_chemical_name_systematic 'Indium tantalum oxide'
_chemical_formula_structural 'In Ta O4'
_chemical_formula_sum 'In1 O4 Ta1'
_chemical_name_structure_type Wolframite-NiWO4
_exptl_crystal_density_diffrn 8.34
_publ_section_title
'In Ta O4 und Ga Ta O4 mit geordneter und ungeordneter Metallverteilung'
loop_
_citation_id
_citation_journal_full
_citation_year
_citation_journal_volume
_citation_page_first
_citation_page_last
_citation_journal_id_ASTM
primary 'Journal of Alloys and Compounds' 1993 194 101 103 JALCEU
loop_
_publ_author_name
'Harneit, O.'
'Mueller Buschbaum, H.'
_cell_length_a 5.150(1)
_cell_length_b 5.770(1)
_cell_length_c 4.821(1)
_cell_angle_alpha 90.
_cell_angle_beta 91.35(2)
_cell_angle_gamma 90.
_cell_volume 143.22
_cell_formula_units_Z 2
_symmetry_space_group_name_H-M 'P 1 2/a 1'
_symmetry_Int_Tables_number 13
_refine_ls_R_factor_all 0.079
loop_
_symmetry_equiv_pos_site_id
_symmetry_equiv_pos_as_xyz
1 'x+1/2, -y, z'
2 '-x, -y, -z'
3 '-x+1/2, y, -z'
4 'x, y, z'
loop_
_atom_type_symbol
_atom_type_oxidation_number
In3+ 3
Ta5+ 5
O2- -2
loop_
_atom_site_label
_atom_site_type_symbol
_atom_site_symmetry_multiplicity
_atom_site_Wyckoff_symbol
_atom_site_fract_x
_atom_site_fract_y
_atom_site_fract_z
_atom_site_B_iso_or_equiv
_atom_site_occupancy
_atom_site_attached_hydrogens
In1 In3+ 2 f 0.25 0.3219(5) 0.5 0.47(3) 1. 0
Ta1 Ta5+ 2 e 0.25 0.8259(3) 0 0.32(2) 1. 0
O1 O2- 4 g 0.438(3) 0.102(3) 0.213(4) 0.62(21) 1. 0
O2 O2- 4 g 0.902(3) 0.383(3) 0.265(3) 0.54(21) 1. 0
#End of TTdata_72569-ICSD