
#(C) 2017 by FIZ Karlsruhe - Leibniz Institute for Information Infrastructure.  All rights reserved.
data_72920-ICSD
_database_code_ICSD 72920
_audit_creation_date 1994-06-30
_chemical_name_systematic 'Vanadium sulfide (3/4)'
_chemical_formula_structural 'V3 S4'
_chemical_formula_sum 'S4 V3'
_chemical_name_structure_type Nb3Te4
_exptl_crystal_density_diffrn 3.92
_cell_measurement_temperature 295.
_publ_section_title
'Structure of hexagonal V3S4 determined at three different temperatures'
loop_
_citation_id
_citation_journal_full
_citation_year
_citation_journal_volume
_citation_page_first
_citation_page_last
_citation_journal_id_ASTM
primary 'Acta Crystallographica, Section C: Crystal Structure Communications'
1993 49 1133 1135 ACSCEE
loop_
_publ_author_name
'Bensch, W.'
'Koy, J.'
_cell_length_a 9.118(1)
_cell_length_b 9.118(1)
_cell_length_c 3.3035(8)
_cell_angle_alpha 90.
_cell_angle_beta 90.
_cell_angle_gamma 120.
_cell_volume 237.85
_cell_formula_units_Z 2
_symmetry_space_group_name_H-M 'P 63/m'
_symmetry_Int_Tables_number 176
_refine_ls_R_factor_all 0.028
loop_
_symmetry_equiv_pos_site_id
_symmetry_equiv_pos_as_xyz
1 '-x+y, -x, -z+1/2'
2 '-y, x-y, -z+1/2'
3 'x, y, -z+1/2'
4 'x-y, x, -z'
5 'y, -x+y, -z'
6 '-x, -y, -z'
7 'x-y, x, z+1/2'
8 'y, -x+y, z+1/2'
9 '-x, -y, z+1/2'
10 '-x+y, -x, z'
11 '-y, x-y, z'
12 'x, y, z'
loop_
_atom_type_symbol
_atom_type_oxidation_number
V2+ 2.667
S2- -2
loop_
_atom_site_label
_atom_site_type_symbol
_atom_site_symmetry_multiplicity
_atom_site_Wyckoff_symbol
_atom_site_fract_x
_atom_site_fract_y
_atom_site_fract_z
_atom_site_B_iso_or_equiv
_atom_site_occupancy
_atom_site_attached_hydrogens
V1 V2+ 6 h 0.4874(1) 0.1216(1) 0.25 . 1. 0
S1 S2- 6 h 0.3474(1) 0.2971(1) 0.25 . 1. 0
S2 S2- 2 c 0.3333 0.6667 0.25 . 1. 0
loop_
_atom_site_aniso_label
_atom_site_aniso_type_symbol
_atom_site_aniso_U_11
_atom_site_aniso_U_22
_atom_site_aniso_U_33
_atom_site_aniso_U_12
_atom_site_aniso_U_13
_atom_site_aniso_U_23
V1 V2+ 0.006(1) 0.006(1) 0.007(1) 0.003(1) 0 0
S1 S2- 0.008(1) 0.007(1) 0.005(1) 0.004(1) 0 0
S2 S2- 0.005(1) 0.005(1) 0.005(1) 0.003(1) 0 0
#End of TTdata_72920-ICSD