
data_73093-ICSD
_database_code_ICSD 73093
_audit_creation_date 1994-06-30
_audit_update_record 2004-04-01
_chemical_name_systematic 'Niobium selenide (1/2)'
_chemical_formula_structural 'Nb Se2'
_chemical_formula_sum 'Nb1 Se2'
_exptl_crystal_density_diffrn 4.42
_cell_length_a 3.4372(5)
_cell_length_b 6.004(4)
_cell_length_c 36.531(9)
_cell_angle_alpha 90.
_cell_angle_beta 90.
_cell_angle_gamma 90.
_cell_volume 753.89
_cell_formula_units_Z 8
_symmetry_space_group_name_H-M 'C 2 2 21'
_symmetry_Int_Tables_number 20
_refine_ls_R_factor_all 0.052
loop_
_symmetry_equiv_pos_site_id
_symmetry_equiv_pos_as_xyz
1 '-x, y, -z+1/2'
2 '-x, -y, z+1/2'
3 'x, -y, -z'
4 'x, y, z'
5 '-x+1/2, y+1/2, -z+1/2'
6 '-x+1/2, -y+1/2, z+1/2'
7 'x+1/2, -y+1/2, -z'
8 'x+1/2, y+1/2, z'
loop_
_atom_type_symbol
_atom_type_oxidation_number
Nb0+ 0
Se0+ 0
loop_
_atom_site_label
_atom_site_type_symbol
_atom_site_symmetry_multiplicity
_atom_site_Wyckoff_symbol
_atom_site_fract_x
_atom_site_fract_y
_atom_site_fract_z
_atom_site_B_iso_or_equiv
_atom_site_occupancy
_atom_site_attached_hydrogens
Nb1 Nb0+ 8 c 0.241(2) -.0012(4) 0.08475(7) 0.54(2) 1. 0
Se1 Se0+ 8 c 0.744(2) 0.1649(6) 0.03988(7) 0.56(3) 1. 0
Se2 Se0+ 8 c 0.737(2) 0.1672(6) 0.13067(7) 0.60(3) 1. 0
