
data_73172-ICSD
_database_code_ICSD 73172
_audit_creation_date 1994-06-30
_audit_update_record 1999-11-30
_chemical_name_systematic 'Potassium selenide (2/2)'
_chemical_formula_structural 'K2 Se2'
_chemical_formula_sum 'K2 Se2'
_chemical_name_structure_type Na2O2
_exptl_crystal_density_diffrn 2.83
_cell_length_a 8.908(1)
_cell_length_b 8.908(1)
_cell_length_c 6.039(1)
_cell_angle_alpha 90.
_cell_angle_beta 90.
_cell_angle_gamma 120.
_cell_volume 415.01
_cell_formula_units_Z 3
_symmetry_space_group_name_H-M 'P -6 2 m'
_symmetry_Int_Tables_number 189
_refine_ls_R_factor_all 0.076
loop_
_symmetry_equiv_pos_site_id
_symmetry_equiv_pos_as_xyz
1 '-x, -x+y, -z'
2 'x-y, -y, -z'
3 'y, x, -z'
4 '-x, -x+y, z'
5 'x-y, -y, z'
6 'y, x, z'
7 '-x+y, -x, -z'
8 '-y, x-y, -z'
9 'x, y, -z'
10 '-x+y, -x, z'
11 '-y, x-y, z'
12 'x, y, z'
loop_
_atom_type_symbol
_atom_type_oxidation_number
K1+ 1
Se1- -1
loop_
_atom_site_label
_atom_site_type_symbol
_atom_site_symmetry_multiplicity
_atom_site_Wyckoff_symbol
_atom_site_fract_x
_atom_site_fract_y
_atom_site_fract_z
_atom_site_B_iso_or_equiv
_atom_site_occupancy
_atom_site_attached_hydrogens
K1 K1+ 3 f 0.649(2) 0 0 . 1. 0
K2 K1+ 3 g 0.309(2) 0 0.5 . 1. 0
Se1 Se1- 2 e 0 0 0.199(5) . 1. 0
Se2 Se1- 4 h 0.3333 0.6667 0.301(3) . 1. 0
loop_
_atom_site_aniso_label
_atom_site_aniso_type_symbol
_atom_site_aniso_U_11
_atom_site_aniso_U_22
_atom_site_aniso_U_33
_atom_site_aniso_U_12
_atom_site_aniso_U_13
_atom_site_aniso_U_23
K1 K1+ 0.0534(87) 0.0083(52) 0.0167(47) 0.00415 0 0
K2 K1+ 0.0258(58) 0.0100(47) 0.0180(45) 0.005 0 0
Se1 Se1- 0.0261(29) 0.0261(29) 0.0114(20) 0.01305 0 0
Se2 Se1- 0.0191(15) 0.0191(15) 0.0095(14) 0.00955 0 0
