
data_73179-ICSD
_database_code_ICSD 73179
_audit_creation_date 1994-06-30
_audit_update_record 2006-04-01
_chemical_name_systematic 'Rubidium telluride (2/2)'
_chemical_formula_structural 'Rb2 Te2'
_chemical_formula_sum 'Rb2 Te2'
_chemical_name_structure_type Na2O2
_exptl_crystal_density_diffrn 3.75
_cell_length_a 9.935(2)
_cell_length_b 9.935(2)
_cell_length_c 6.627(3)
_cell_angle_alpha 90.
_cell_angle_beta 90.
_cell_angle_gamma 120.
_cell_volume 566.48
_cell_formula_units_Z 3
_symmetry_space_group_name_H-M 'P -6 2 m'
_symmetry_Int_Tables_number 189
loop_
_symmetry_equiv_pos_site_id
_symmetry_equiv_pos_as_xyz
1 '-x, -x+y, -z'
2 'x-y, -y, -z'
3 'y, x, -z'
4 '-x, -x+y, z'
5 'x-y, -y, z'
6 'y, x, z'
7 '-x+y, -x, -z'
8 '-y, x-y, -z'
9 'x, y, -z'
10 '-x+y, -x, z'
11 '-y, x-y, z'
12 'x, y, z'
loop_
_atom_type_symbol
_atom_type_oxidation_number
Rb1+ 1
Te1- -1
loop_
_atom_site_label
_atom_site_type_symbol
_atom_site_symmetry_multiplicity
_atom_site_Wyckoff_symbol
_atom_site_fract_x
_atom_site_fract_y
_atom_site_fract_z
_atom_site_B_iso_or_equiv
_atom_site_occupancy
_atom_site_attached_hydrogens
Rb1 Rb1+ 3 f 0.673 0 0 2.1 1. 0
Rb2 Rb1+ 3 g 0.29 0 0.5 2.1 1. 0
Te1 Te1- 2 e 0 0 0.21 2.3 1. 0
Te2 Te1- 4 h 0.3333 0.6667 0.29 2.3 1. 0
