
data_73531-ICSD
_database_code_ICSD 73531
_audit_creation_date 1994-06-30
_audit_update_record 1999-11-30
_chemical_name_systematic 'Strontium iridium phosphide (1/2/2)'
_chemical_formula_structural 'Sr Ir2 P2'
_chemical_formula_sum 'Ir2 P2 Sr1'
_chemical_name_structure_type EuIr2P2
_exptl_crystal_density_diffrn 9.75
_cell_length_a 6.693(1)
_cell_length_b 6.693(1)
_cell_length_c 7.061(1)
_cell_angle_alpha 90.
_cell_angle_beta 90.
_cell_angle_gamma 120.
_cell_volume 273.93
_cell_formula_units_Z 3
_symmetry_space_group_name_H-M 'P 32 2 1'
_symmetry_Int_Tables_number 154
_refine_ls_R_factor_all 0.063
loop_
_symmetry_equiv_pos_site_id
_symmetry_equiv_pos_as_xyz
1 '-x, -x+y, -z+2/3'
2 'x-y, -y, -z+1/3'
3 'y, x, -z'
4 '-x+y, -x, z+1/3'
5 '-y, x-y, z+2/3'
6 'x, y, z'
loop_
_atom_type_symbol
_atom_type_oxidation_number
Sr0+ 0
Ir0+ 0
P0+ 0
loop_
_atom_site_label
_atom_site_type_symbol
_atom_site_symmetry_multiplicity
_atom_site_Wyckoff_symbol
_atom_site_fract_x
_atom_site_fract_y
_atom_site_fract_z
_atom_site_B_iso_or_equiv
_atom_site_occupancy
_atom_site_attached_hydrogens
Sr1 Sr0+ 3 b 0.4007(5) 0.4007 0.5 . 1. 0
Ir1 Ir0+ 3 a 0.5163(2) 0 0.6667(1) . 1. 0
Ir2 Ir0+ 3 b 0.1289(2) 0 0.1667 . 1. 0
P1 P0+ 6 c 0.2209(12) 0.8794(12) 0.4594(10) . 1. 0
loop_
_atom_site_aniso_label
_atom_site_aniso_type_symbol
_atom_site_aniso_U_11
_atom_site_aniso_U_22
_atom_site_aniso_U_33
_atom_site_aniso_U_12
_atom_site_aniso_U_13
_atom_site_aniso_U_23
Sr1 Sr0+ 0.0043(8) 0.0043(8) 0.0056(3) 0.0011(9) -.0001(6) -.0001(6)
Ir1 Ir0+ 0.0019(3) 0.0028(4) 0.0034(4) 0.0014(2) 0.0000(2) 0.0000(4)
Ir2 Ir0+ 0.0019(3) 0.0017(4) 0.0025(4) 0.0008(2) 0.0001(2) 0.0002(4)
P1 P0+ 0.0044(23) 0.0041(23) 0.0052(24) 0.0008(17) -.0005(20) -.0014(20)
