
#(C) 2017 by FIZ Karlsruhe - Leibniz Institute for Information Infrastructure.  All rights reserved.
data_74542-ICSD
_database_code_ICSD 74542
_audit_creation_date 1995-10-17
_audit_update_record 2012-08-01
_chemical_name_systematic 'Dicobalt diphosphate(V) - beta'
_chemical_formula_structural 'Co2 (P2 O7)'
_chemical_formula_sum 'Co2 O7 P2'
_chemical_name_structure_type Sc2Si2O7
_exptl_crystal_density_diffrn 3.88
_cell_measurement_temperature 298.
_publ_section_title 'beta-Dicobalt pyrophosphate'
loop_
_citation_id
_citation_journal_full
_citation_year
_citation_journal_volume
_citation_page_first
_citation_page_last
_citation_journal_id_ASTM
primary 'Acta Crystallographica, Section C: Crystal Structure Communications'
1994 50 482 484 ACSCEE
loop_
_publ_author_name
'El Belghiti, A.A.'
'Boukhari, A.'
_cell_length_a 4.524(2)
_cell_length_b 8.526(4)
_cell_length_c 6.640(3)
_cell_angle_alpha 90.
_cell_angle_beta 102.59(3)
_cell_angle_gamma 90.
_cell_volume 249.96
_cell_formula_units_Z 2
_symmetry_space_group_name_H-M 'A 1 2/m 1'
_symmetry_Int_Tables_number 12
_refine_ls_R_factor_all 0.057
loop_
_symmetry_equiv_pos_site_id
_symmetry_equiv_pos_as_xyz
1 'x, -y, z'
2 '-x, -y, -z'
3 '-x, y, -z'
4 'x, y, z'
5 'x, -y+1/2, z+1/2'
6 '-x, -y+1/2, -z+1/2'
7 '-x, y+1/2, -z+1/2'
8 'x, y+1/2, z+1/2'
loop_
_atom_type_symbol
_atom_type_oxidation_number
Co2+ 2
P5+ 5
O2- -2
loop_
_atom_site_label
_atom_site_type_symbol
_atom_site_symmetry_multiplicity
_atom_site_Wyckoff_symbol
_atom_site_fract_x
_atom_site_fract_y
_atom_site_fract_z
_atom_site_B_iso_or_equiv
_atom_site_occupancy
_atom_site_attached_hydrogens
Co1 Co2+ 4 h 0.5 0.6926(2) 0 . 1. 0
P1 P5+ 4 i -.0880(8) 0.5 0.7130(6) . 1. 0
O1 O2- 4 i 0.214(3) 0 0.369(2) . 1. 0
O2 O2- 8 j 0.728(2) 0.648(1) 0.725(2) . 1. 0
O3 O2- 2 a 0 0 0 . 1. 0
loop_
_atom_site_aniso_label
_atom_site_aniso_type_symbol
_atom_site_aniso_U_11
_atom_site_aniso_U_22
_atom_site_aniso_U_33
_atom_site_aniso_U_12
_atom_site_aniso_U_13
_atom_site_aniso_U_23
Co1 Co2+ 0.0078(7) 0.0047(7) 0.0141(8) 0 -0.0067(5) 0
P1 P5+ 0.014(1) 0.022(1) 0.021(1) 0 -0.005(1) 0
O1 O2- 0.016(4) 0.033(5) 0.021(5) 0 -0.006(4) 0
O2 O2- 0.015(3) 0.023(3) 0.058(6) 0.003(3) -0.012(3) -0.001(4)
O3 O2- 0.06(2) 0.021(4) 0.02(1) 0 -0.01(1) 0
#End of TTdata_74542-ICSD