
data_74630-ICSD
_database_code_ICSD 74630
_audit_creation_date 1995-10-17
_audit_update_record 2007-08-01
_chemical_name_systematic 'Iridium antimony sulfide (1/1/1)'
_chemical_formula_structural 'Ir Sb S'
_chemical_formula_sum 'Ir1 S1 Sb1'
_chemical_name_structure_type PtGeSe
_chemical_name_mineral Tolovkite
_exptl_crystal_density_diffrn 10.54
_cell_length_a 6.025(2)
_cell_length_b 6.025(2)
_cell_length_c 6.025(2)
_cell_angle_alpha 90.
_cell_angle_beta 90.
_cell_angle_gamma 90.
_cell_volume 218.71
_cell_formula_units_Z 4
_symmetry_space_group_name_H-M 'P c a 21'
_symmetry_Int_Tables_number 29
loop_
_symmetry_equiv_pos_site_id
_symmetry_equiv_pos_as_xyz
1 'x+1/2, -y, z'
2 '-x+1/2, y, z+1/2'
3 '-x, -y, z+1/2'
4 'x, y, z'
loop_
_atom_type_symbol
_atom_type_oxidation_number
Ir0+ 0
Sb0+ 0
S0+ 0
loop_
_atom_site_label
_atom_site_type_symbol
_atom_site_symmetry_multiplicity
_atom_site_Wyckoff_symbol
_atom_site_fract_x
_atom_site_fract_y
_atom_site_fract_z
_atom_site_B_iso_or_equiv
_atom_site_occupancy
_atom_site_attached_hydrogens
Ir1 Ir0+ 4 a -.0067 0.2612 0.0022 0.2 1. 0
Sb1 Sb0+ 4 a 0.3776 0.6276 0.3776 0.4 1. 0
S1 S0+ 4 a 0.6224 0.8724 0.6224 0.8 1. 0
