
data_74641-ICSD
_database_code_ICSD 74641
_audit_creation_date 1995-10-17
_audit_update_record 2012-02-01
_chemical_name_systematic 'Cesium carbide (1/8)'
_chemical_formula_structural 'Cs C8'
_chemical_formula_sum 'C8 Cs1'
_exptl_crystal_density_diffrn 3.03
_cell_length_a 4.945(10)
_cell_length_b 4.945(10)
_cell_length_c 17.760(30)
_cell_angle_alpha 90.
_cell_angle_beta 90.
_cell_angle_gamma 120.
_cell_volume 376.1
_cell_formula_units_Z 3
_symmetry_space_group_name_H-M 'P 62 2 2'
_symmetry_Int_Tables_number 180
loop_
_symmetry_equiv_pos_site_id
_symmetry_equiv_pos_as_xyz
1 'x, x-y, -z+1/3'
2 '-x+y, y, -z'
3 '-y, -x, -z+2/3'
4 '-x, -x+y, -z+1/3'
5 'x-y, -y, -z'
6 'y, x, -z+2/3'
7 'x-y, x, z+1/3'
8 'y, -x+y, z+2/3'
9 '-x, -y, z'
10 '-x+y, -x, z+1/3'
11 '-y, x-y, z+2/3'
12 'x, y, z'
loop_
_atom_type_symbol
_atom_type_oxidation_number
C0+ 0
Cs0+ 0
loop_
_atom_site_label
_atom_site_type_symbol
_atom_site_symmetry_multiplicity
_atom_site_Wyckoff_symbol
_atom_site_fract_x
_atom_site_fract_y
_atom_site_fract_z
_atom_site_B_iso_or_equiv
_atom_site_occupancy
_atom_site_attached_hydrogens
C1 C0+ 12 k 0.1667 0.3333 0.3333 . 1. 0
C2 C0+ 6 i 0.16667 0.33334 0 . 1. 0
C3 C0+ 6 i 0.3333 0.6667 0 . 1. 0
Cs1 Cs0+ 3 b 0 0 0.5 . 1. 0
