
#(C) 2017 by FIZ Karlsruhe - Leibniz Institute for Information Infrastructure.  All rights reserved.
data_74681-ICSD
_database_code_ICSD 74681
_audit_creation_date 1995-10-17
_chemical_name_systematic 'Osmium dodecachlorodiselenate(IV)'
_chemical_formula_structural 'Os (Se2 Cl12)'
_chemical_formula_sum 'Cl12 Os1 Se2'
_chemical_name_structure_type (SeCl3)2ReCl6
_exptl_crystal_density_diffrn 3.32
_publ_section_title

;
Crystal structure of reaction products of osmium tetrachloride
withtetrachlorides of sulfur, selenium and tellurium
;
loop_
_citation_id
_citation_journal_full
_citation_year
_citation_journal_volume
_citation_page_first
_citation_page_last
_citation_journal_id_ASTM
primary 'Koordinatsionnaya Khimiya (= Coordination Chemistry (USSR))' 1989 15
700 703 KOKHDC
loop_
_publ_author_name
'Rybakov, V.B.'
'Aslanov, L.A.'
'Volkov, S.V.'
'Pekhn'o, V.I.'
_cell_length_a 12.602(4)
_cell_length_b 11.482(4)
_cell_length_c 21.370(5)
_cell_angle_alpha 90.
_cell_angle_beta 90.
_cell_angle_gamma 90.
_cell_volume 3092.16
_cell_formula_units_Z 8
_symmetry_space_group_name_H-M 'F d d 2'
_symmetry_Int_Tables_number 43
_refine_ls_R_factor_all 0.036
loop_
_symmetry_equiv_pos_site_id
_symmetry_equiv_pos_as_xyz
1 'x+1/4, -y+1/4, z+1/4'
2 '-x+1/4, y+1/4, z+1/4'
3 '-x, -y, z'
4 'x, y, z'
5 'x+1/4, -y+3/4, z+3/4'
6 '-x+1/4, y+3/4, z+3/4'
7 '-x, -y+1/2, z+1/2'
8 'x, y+1/2, z+1/2'
9 'x+3/4, -y+1/4, z+3/4'
10 '-x+3/4, y+1/4, z+3/4'
11 '-x+1/2, -y, z+1/2'
12 'x+1/2, y, z+1/2'
13 'x+3/4, -y+3/4, z+1/4'
14 '-x+3/4, y+3/4, z+1/4'
15 '-x+1/2, -y+1/2, z'
16 'x+1/2, y+1/2, z'
loop_
_atom_type_symbol
_atom_type_oxidation_number
Os4+ 4
Se4+ 4
Cl1- -1
loop_
_atom_site_label
_atom_site_type_symbol
_atom_site_symmetry_multiplicity
_atom_site_Wyckoff_symbol
_atom_site_fract_x
_atom_site_fract_y
_atom_site_fract_z
_atom_site_B_iso_or_equiv
_atom_site_occupancy
_atom_site_attached_hydrogens
Os1 Os4+ 8 a 0 0 0.66666(2) 1.181(1) 1. 0
Se1 Se4+ 16 b -.0285(1) 0.7414(1) 0.49818(7) 1.64(2) 1. 0
Cl1 Cl1- 16 b 0.0786(3) 0.8812(4) 0.5916(2) 2.11(7) 1. 0
Cl2 Cl1- 16 b 0.1522(3) 0.11170(3) 0.6654(2) 1.96(6) 1. 0
Cl3 Cl1- 16 b -.0729(3) 0.1187(4) 0.7447(2) 2.08(6) 1. 0
Cl4 Cl1- 16 b -.0816(3) 0.6372(4) 0.4209(3) 2.73(7) 1. 0
Cl5 Cl1- 16 b 0.8490(4) 0.8704(4) 0.4937(3) 2.81(8) 1. 0
Cl6 Cl1- 16 b -.0927(4) 0.6319(5) 0.5708(2) 3.03(9) 1. 0
#End of TTdata_74681-ICSD