
#(C) 2017 by FIZ Karlsruhe - Leibniz Institute for Information Infrastructure.  All rights reserved.
data_74771-ICSD
_database_code_ICSD 74771
_audit_creation_date 1995-10-17
_audit_update_record 2012-02-01
_chemical_name_systematic 'Mercury phosphide chloride (2/3/1)'
_chemical_formula_structural 'Hg2 P3 Cl'
_chemical_formula_sum 'Cl1 Hg2 P3'
_chemical_name_structure_type Hg2P3Cl
_exptl_crystal_density_diffrn 6.77
_cell_measurement_temperature 294.
_publ_section_title
'Helical (P1-) chains in the structures of Hg2 P3 Br and Hg2 P3 Cl'
loop_
_citation_id
_citation_journal_full
_citation_year
_citation_journal_volume
_citation_page_first
_citation_page_last
_citation_journal_id_ASTM
primary 'Zeitschrift fuer Kristallographie (1979-2010)' 1994 209 583 585 ZEKRDZ
loop_
_publ_author_name
'Shevel'kov, A.V.'
'Dikarev, E.V.'
'Popovkin, B.A.'
_cell_length_a 7.834(2)
_cell_length_b 8.844(11)
_cell_length_c 7.591(1)
_cell_angle_alpha 90.
_cell_angle_beta 98.68(1)
_cell_angle_gamma 90.
_cell_volume 519.91
_cell_formula_units_Z 4
_symmetry_space_group_name_H-M 'C 1 2/c 1'
_symmetry_Int_Tables_number 15
_refine_ls_R_factor_all 0.035
loop_
_symmetry_equiv_pos_site_id
_symmetry_equiv_pos_as_xyz
1 'x, -y, z+1/2'
2 '-x, -y, -z'
3 '-x, y, -z+1/2'
4 'x, y, z'
5 'x+1/2, -y+1/2, z+1/2'
6 '-x+1/2, -y+1/2, -z'
7 '-x+1/2, y+1/2, -z+1/2'
8 'x+1/2, y+1/2, z'
loop_
_atom_type_symbol
_atom_type_oxidation_number
Hg2+ 2
Cl1- -1
P1- -1
loop_
_atom_site_label
_atom_site_type_symbol
_atom_site_symmetry_multiplicity
_atom_site_Wyckoff_symbol
_atom_site_fract_x
_atom_site_fract_y
_atom_site_fract_z
_atom_site_B_iso_or_equiv
_atom_site_occupancy
_atom_site_attached_hydrogens
Hg1 Hg2+ 8 f 0.72505(5) 0.13590(7) 0.67207(8) . 1. 0
Cl1 Cl1- 4 e 0.5 0.1282(6) 0.25 . 1. 0
P1 P1- 4 e 0 0.1955(6) 0.25 . 1. 0
P2 P1- 8 f 0.1187(5) 0.0564(4) 0.4750(5) . 1. 0
loop_
_atom_site_aniso_label
_atom_site_aniso_type_symbol
_atom_site_aniso_B_11
_atom_site_aniso_B_22
_atom_site_aniso_B_33
_atom_site_aniso_B_12
_atom_site_aniso_B_13
_atom_site_aniso_B_23
Hg1 Hg2+ 1.33(2) 1.34(2) 1.34(2) 0.47(2) 0.28(2) 0.08(2)
Cl1 Cl1- 1.1(2) 1.1(2) 2.4(2) 0 -.2(2) 0
P1 P1- 0.7(2) 1.1(2) 0.4(2) 0 -.1(1) 0
P2 P1- 0.7(1) 1.1(1) 0.3(1) 0.1(1) -.4(1) -.2(1)
#End of TTdata_74771-ICSD