
#(C) 2017 by FIZ Karlsruhe - Leibniz Institute for Information Infrastructure.  All rights reserved.
data_74950-ICSD
_database_code_ICSD 74950
_audit_creation_date 1995-10-17
_chemical_name_systematic 'Heptalithium tantalate'
_chemical_formula_structural 'Li7 (Ta O6)'
_chemical_formula_sum 'Li7 O6 Ta1'
_exptl_crystal_density_diffrn 4.26
_publ_section_title
'Zur Kenntnis "Kationen-reicher" Tantalate. Ueber Li7(TaO6).'
loop_
_citation_id
_citation_journal_full
_citation_year
_citation_journal_volume
_citation_page_first
_citation_page_last
_citation_journal_id_ASTM
primary 'Zeitschrift fuer Anorganische und Allgemeine Chemie (1950) (DE)' 1994
620 659 664 ZAACAB
loop_
_publ_author_name
'Wehrum, G.'
'Hoppe, R.'
_cell_length_a 5.3869(8)
_cell_length_b 5.3869(8)
_cell_length_c 15.1367(23)
_cell_angle_alpha 90.
_cell_angle_beta 90.
_cell_angle_gamma 120.
_cell_volume 380.4
_cell_formula_units_Z 3
_symmetry_space_group_name_H-M 'P 3'
_symmetry_Int_Tables_number 143
loop_
_symmetry_equiv_pos_site_id
_symmetry_equiv_pos_as_xyz
1 '-x+y, -x, z'
2 '-y, x-y, z'
3 'x, y, z'
loop_
_atom_type_symbol
_atom_type_oxidation_number
Li1+ 1
Ta5+ 5
O2- -2
loop_
_atom_site_label
_atom_site_type_symbol
_atom_site_symmetry_multiplicity
_atom_site_Wyckoff_symbol
_atom_site_fract_x
_atom_site_fract_y
_atom_site_fract_z
_atom_site_B_iso_or_equiv
_atom_site_occupancy
_atom_site_attached_hydrogens
Li1 Li1+ 3 d 0.3776 0.3604 0.1225 . 1. 0
Li2 Li1+ 3 d 0.6224 0.6396 0.8775 . 1. 0
Li3 Li1+ 3 d 0.0443 0.6937 0.4558 . 1. 0
Li4 Li1+ 3 d 0.9557 0.3063 0.5442 . 1. 0
Li5 Li1+ 3 d 0.7109 0.0271 0.7892 . 1. 0
Li6 Li1+ 3 d 0.2891 0.9729 0.2108 . 1. 0
Li7 Li1+ 1 a 0 0 0.6615 . 1. 0
Li8 Li1+ 1 c 0.6667 0.3333 0.9948 . 1. 0
Li9 Li1+ 1 b 0.3333 0.6667 0.3282 . 1. 0
Ta1 Ta5+ 1 a 0 0 0 . 1. 0
Ta2 Ta5+ 1 c 0.6667 0.3333 0.3333 . 1. 0
Ta3 Ta5+ 1 b 0.3333 0.6667 0.6667 . 1. 0
O1 O2- 3 d 0.6944 0.7027 0.077 . 1. 0
O2 O2- 3 d 0.3056 0.2973 0.923 . 1. 0
O3 O2- 3 d 0.3611 0.036 0.4103 . 1. 0
O4 O2- 3 d 0.6389 0.964 0.5897 . 1. 0
O5 O2- 3 d 0.0277 0.3694 0.7437 . 1. 0
O6 O2- 3 d 0.9723 0.6306 0.2563 . 1. 0
#End of TTdata_74950-ICSD