
#(C) 2017 by FIZ Karlsruhe - Leibniz Institute for Information Infrastructure.  All rights reserved.
data_75009-ICSD
_database_code_ICSD 75009
_audit_creation_date 1995-10-17
_audit_update_record 2013-02-01
_chemical_name_systematic 'Hafnium niobium phosphide (1/1/1)'
_chemical_formula_structural 'Hf Nb P'
_chemical_formula_sum 'Hf1 Nb1 P1'
_chemical_name_structure_type TiNiSi-MgSrSi
_exptl_crystal_density_diffrn 10.02
_publ_section_title 'ZrNbP and HfNbP, new phases with the Co2Si structure'
loop_
_citation_id
_citation_journal_full
_citation_year
_citation_journal_volume
_citation_page_first
_citation_page_last
_citation_journal_id_ASTM
primary 'Journal of Alloys and Compounds' 1994 204 L17 L20 JALCEU
loop_
_publ_author_name
'Marking, G.A.'
'Franzen, H.F.'
_cell_length_a 6.8504(8)
_cell_length_b 3.5238(4)
_cell_length_c 8.3007(9)
_cell_angle_alpha 90.
_cell_angle_beta 90.
_cell_angle_gamma 90.
_cell_volume 200.37
_cell_formula_units_Z 4
_symmetry_space_group_name_H-M 'P n m a'
_symmetry_Int_Tables_number 62
_refine_ls_R_factor_all 0.09
loop_
_symmetry_equiv_pos_site_id
_symmetry_equiv_pos_as_xyz
1 'x+1/2, y, -z+1/2'
2 'x, -y+1/2, z'
3 '-x+1/2, y+1/2, z+1/2'
4 '-x, -y, -z'
5 '-x+1/2, -y, z+1/2'
6 '-x, y+1/2, -z'
7 'x+1/2, -y+1/2, -z+1/2'
8 'x, y, z'
loop_
_atom_type_symbol
_atom_type_oxidation_number
Nb0+ 0
Hf0+ 0
P0+ 0
loop_
_atom_site_label
_atom_site_type_symbol
_atom_site_symmetry_multiplicity
_atom_site_Wyckoff_symbol
_atom_site_fract_x
_atom_site_fract_y
_atom_site_fract_z
_atom_site_B_iso_or_equiv
_atom_site_occupancy
_atom_site_attached_hydrogens
Nb1 Nb0+ 4 c 0.13994(8) 0.25 0.93965(7) . 1. 0
Hf1 Hf0+ 4 c 0.0332(1) 0.25 0.33141(8) . 1. 0
P1 P0+ 4 c 0.2622(3) 0.25 0.6426(2) . 1. 0
#End of TTdata_75009-ICSD