
#(C) 2017 by FIZ Karlsruhe - Leibniz Institute for Information Infrastructure.  All rights reserved.
data_75169-ICSD
_database_code_ICSD 75169
_audit_creation_date 1995-10-17
_chemical_name_systematic 'Mercury arsenide bromide (2/3/1)'
_chemical_formula_structural 'Hg2 As3 Br'
_chemical_formula_sum 'As3 Br1 Hg2'
_chemical_name_structure_type Hg2P3Cl
_exptl_crystal_density_diffrn 7.79
_publ_section_title

;
A novel metallic halide, Hg2As3Br: synthesis and crystal structure of Cd2As3Br
;
loop_
_citation_id
_citation_journal_full
_citation_year
_citation_journal_volume
_citation_page_first
_citation_page_last
_citation_journal_id_ASTM
primary 'Journal of Solid State Chemistry' 1994 113 116 119 JSSCBI
loop_
_publ_author_name
'Shevel'kov, A.V.'
'Dikarev, E.V.'
'Popovkin, B.A.'
_cell_length_a 8.0914(8)
_cell_length_b 9.300(1)
_cell_length_c 8.1084(7)
_cell_angle_alpha 90.
_cell_angle_beta 99.323(9)
_cell_angle_gamma 90.
_cell_volume 602.1
_cell_formula_units_Z 4
_symmetry_space_group_name_H-M 'C 1 2/c 1'
_symmetry_Int_Tables_number 15
_refine_ls_R_factor_all 0.053
loop_
_symmetry_equiv_pos_site_id
_symmetry_equiv_pos_as_xyz
1 'x, -y, z+1/2'
2 '-x, -y, -z'
3 '-x, y, -z+1/2'
4 'x, y, z'
5 'x+1/2, -y+1/2, z+1/2'
6 '-x+1/2, -y+1/2, -z'
7 '-x+1/2, y+1/2, -z+1/2'
8 'x+1/2, y+1/2, z'
loop_
_atom_type_symbol
_atom_type_oxidation_number
Hg2+ 2
Br1- -1
As1- -1
loop_
_atom_site_label
_atom_site_type_symbol
_atom_site_symmetry_multiplicity
_atom_site_Wyckoff_symbol
_atom_site_fract_x
_atom_site_fract_y
_atom_site_fract_z
_atom_site_B_iso_or_equiv
_atom_site_occupancy
_atom_site_attached_hydrogens
Hg1 Hg2+ 8 f 0.7250(1) 0.13322(9) 0.6603(1) 1.30(1) 1. 0
Br1 Br1- 4 e 0 0.6354(3) 0.25 1.35(4) 1. 0
As1 As1- 4 e 0 0.2059(3) 0.25 0.48(4) 1. 0
As2 As1- 8 f 0.1303(2) 0.0597(2) 0.4842(2) 0.62(3) 1. 0
#End of TTdata_75169-ICSD