
#(C) 2017 by FIZ Karlsruhe - Leibniz Institute for Information Infrastructure.  All rights reserved.
data_75515-ICSD
_database_code_ICSD 75515
_audit_creation_date 1996-04-22
_chemical_name_systematic 'Barium cobalt sulfide'
_chemical_formula_structural 'Ba Co S2'
_chemical_formula_sum 'Ba1 Co1 S2'
_exptl_crystal_density_diffrn 4.63
_publ_section_title
'Refined structure and properties of the layered Mott insulator Ba Co S2'
loop_
_citation_id
_citation_journal_full
_citation_year
_citation_journal_volume
_citation_page_first
_citation_page_last
_citation_journal_id_ASTM
primary 'Journal of Solid State Chemistry' 1994 113 355 361 JSSCBI
loop_
_publ_author_name
'Snyder, G.J.'
'Gelabert, M.C.'
'DiSalvo, F.J.'
_cell_length_a 6.4413(3)
_cell_length_b 6.4926(3)
_cell_length_c 8.9406(3)
_cell_angle_alpha 90.
_cell_angle_beta 90.
_cell_angle_gamma 90.
_cell_volume 373.9
_cell_formula_units_Z 4
_symmetry_space_group_name_H-M 'C m m a'
_symmetry_Int_Tables_number 67
_refine_ls_R_factor_all 0.045
loop_
_symmetry_equiv_pos_site_id
_symmetry_equiv_pos_as_xyz
1 'x+1/2, y, -z'
2 'x+1/2, -y, z'
3 '-x, y, z'
4 '-x, -y, -z'
5 '-x+1/2, -y, z'
6 '-x+1/2, y, -z'
7 'x, -y, -z'
8 'x, y, z'
9 'x, y+1/2, -z'
10 'x, -y+1/2, z'
11 '-x+1/2, y+1/2, z'
12 '-x+1/2, -y+1/2, -z'
13 '-x, -y+1/2, z'
14 '-x, y+1/2, -z'
15 'x+1/2, -y+1/2, -z'
16 'x+1/2, y+1/2, z'
loop_
_atom_type_symbol
_atom_type_oxidation_number
Ba2+ 2
Co2+ 2
S2- -2
loop_
_atom_site_label
_atom_site_type_symbol
_atom_site_symmetry_multiplicity
_atom_site_Wyckoff_symbol
_atom_site_fract_x
_atom_site_fract_y
_atom_site_fract_z
_atom_site_B_iso_or_equiv
_atom_site_occupancy
_atom_site_attached_hydrogens
Ba1 Ba2+ 4 g 0 0.25 0.1981(1) . 1. 0
Co1 Co2+ 4 g 0 0.25 0.5932(2) . 1. 0
S1 S2- 4 g 0 0.25 0.8496(4) . 1. 0
S2 S2- 4 b 0.25 0.5 0.5 . 1. 0
loop_
_atom_site_aniso_label
_atom_site_aniso_type_symbol
_atom_site_aniso_U_11
_atom_site_aniso_U_22
_atom_site_aniso_U_33
_atom_site_aniso_U_12
_atom_site_aniso_U_13
_atom_site_aniso_U_23
Ba1 Ba2+ 0.019(2) 0.011(2) 0.013(1) 0 0 0
Co1 Co2+ 0.023(3) 0.016(2) 0.014(1) 0 0 0
S1 S2- 0.021(3) 0.009(2) 0.011(2) 0 0 0
S2 S2- 0.013(2) 0.062(4) 0.017(1) 0 0 0
#End of TTdata_75515-ICSD