
#(C) 2017 by FIZ Karlsruhe - Leibniz Institute for Information Infrastructure.  All rights reserved.
data_75901-ICSD
_database_code_ICSD 75901
_audit_creation_date 1996-04-22
_audit_update_record 2007-08-01
_chemical_name_systematic 'Bismuth antimonate'
_chemical_formula_structural 'Bi (Sb O4)'
_chemical_formula_sum 'Bi1 O4 Sb1'
_chemical_name_structure_type HgMoO4
_exptl_crystal_density_diffrn 8.46
_cell_measurement_temperature 298.
_publ_section_title 'X-ray powder diffraction study of Bi Sb O4'
loop_
_citation_id
_citation_journal_full
_citation_year
_citation_journal_volume
_citation_page_first
_citation_page_last
_citation_journal_id_ASTM
primary 'Powder Diffraction' 1994 9 164 167 PODIE2
loop_
_publ_author_name
'Kennedy, B.J.'
_cell_length_a 5.4690(2)
_cell_length_b 4.8847(2)
_cell_length_c 11.8252(6)
_cell_angle_alpha 90.
_cell_angle_beta 101.131(3)
_cell_angle_gamma 90.
_cell_volume 309.96
_cell_formula_units_Z 4
_symmetry_space_group_name_H-M 'I 1 2/c 1'
_symmetry_Int_Tables_number 15
_refine_ls_R_factor_all 0.042
loop_
_symmetry_equiv_pos_site_id
_symmetry_equiv_pos_as_xyz
1 '-x, y, -z+1/2'
2 '-x, -y, -z'
3 'x, -y, z+1/2'
4 'x, y, z'
5 '-x+1/2, y+1/2, -z'
6 '-x+1/2, -y+1/2, -z+1/2'
7 'x+1/2, -y+1/2, z'
8 'x+1/2, y+1/2, z+1/2'
loop_
_atom_type_symbol
_atom_type_oxidation_number
Sb5+ 5
Bi3+ 3
O2- -2
loop_
_atom_site_label
_atom_site_type_symbol
_atom_site_symmetry_multiplicity
_atom_site_Wyckoff_symbol
_atom_site_fract_x
_atom_site_fract_y
_atom_site_fract_z
_atom_site_B_iso_or_equiv
_atom_site_occupancy
_atom_site_attached_hydrogens
Sb1 Sb5+ 4 a 0 0 0 0.5 1. 0
Bi1 Bi3+ 4 e 0 0.5104(8) 0.25 0.5 1. 0
O1 O2- 8 f 0.257(7) 0.293(7) 0.064(3) 1.4(6) 1. 0
O2 O2- 8 f 0.107(6) 0.840(6) 0.146(3) 1.4(6) 1. 0
#End of TTdata_75901-ICSD