
#(C) 2017 by FIZ Karlsruhe - Leibniz Institute for Information Infrastructure.  All rights reserved.
data_76028-ICSD
_database_code_ICSD 76028
_audit_creation_date 2000-12-16
_chemical_name_systematic 'Chromium phosphide'
_chemical_formula_structural 'Cr P'
_chemical_formula_sum 'Cr1 P1'
_chemical_name_structure_type MnP
_exptl_crystal_density_diffrn 5.41
_publ_section_title 'An X-ray investigation of transition metal phosphides'
loop_
_citation_id
_citation_journal_full
_citation_year
_citation_journal_volume
_citation_page_first
_citation_page_last
_citation_journal_id_ASTM
primary 'Acta Chemica Scandinavica (1-27,1973-42,1988)' 1954 8 226 239 ACSAA4
loop_
_publ_author_name
'Schoenberg, N.'
_cell_length_a 6.108
_cell_length_b 5.362
_cell_length_c 3.113
_cell_angle_alpha 90.
_cell_angle_beta 90.
_cell_angle_gamma 90.
_cell_volume 101.95
_cell_formula_units_Z 4
_symmetry_space_group_name_H-M 'P b n m'
_symmetry_Int_Tables_number 62
loop_
_symmetry_equiv_pos_site_id
_symmetry_equiv_pos_as_xyz
1 '-x+1/2, y+1/2, z'
2 'x, y, -z+1/2'
3 'x+1/2, -y+1/2, z+1/2'
4 '-x, -y, -z'
5 'x+1/2, -y+1/2, -z'
6 '-x, -y, z+1/2'
7 '-x+1/2, y+1/2, -z+1/2'
8 'x, y, z'
loop_
_atom_type_symbol
_atom_type_oxidation_number
Cr3+ 3
P3- -3
loop_
_atom_site_label
_atom_site_type_symbol
_atom_site_symmetry_multiplicity
_atom_site_Wyckoff_symbol
_atom_site_fract_x
_atom_site_fract_y
_atom_site_fract_z
_atom_site_B_iso_or_equiv
_atom_site_occupancy
_atom_site_attached_hydrogens
Cr1 Cr3+ 4 c 0.16 0 0.25 . 1. 0
P1 P3- 4 c 0.63 0.2 0.25 . 1. 0
#End of TTdata_76028-ICSD