
#(C) 2017 by FIZ Karlsruhe - Leibniz Institute for Information Infrastructure.  All rights reserved.
data_76127-ICSD
_database_code_ICSD 76127
_audit_creation_date 2000-12-16
_audit_update_record 2007-08-01
_chemical_name_systematic 'Chromium bromide (2/1)'
_chemical_formula_structural 'Cr2 B'
_chemical_formula_sum 'B1 Cr2'
_chemical_name_structure_type Al2Cu
_exptl_crystal_density_diffrn 6.57
_publ_section_title 'Etude des borures de chrome.'
loop_
_citation_id
_citation_journal_full
_citation_year
_citation_journal_volume
_citation_page_first
_citation_page_last
_citation_journal_id_ASTM
primary

;
Comptes Rendus Hebdomadaires des Seances de l'Academie des Sciences (1884 -
1965)
; 1953 236 1055 1056 COREAF
loop_
_publ_author_name
'Bertaut, E.F.'
'Blum, P.'
_cell_length_a 5.185
_cell_length_b 5.185
_cell_length_c 4.316
_cell_angle_alpha 90.
_cell_angle_beta 90.
_cell_angle_gamma 90.
_cell_volume 116.03
_cell_formula_units_Z 4
_symmetry_space_group_name_H-M 'I 4/m c m'
_symmetry_Int_Tables_number 140
loop_
_symmetry_equiv_pos_site_id
_symmetry_equiv_pos_as_xyz
1 'y, x, -z+1/2'
2 '-y, -x, -z+1/2'
3 '-y, x, -z'
4 'y, -x, -z'
5 'x, -y, -z+1/2'
6 '-x, y, -z+1/2'
7 'x, y, -z'
8 '-x, -y, -z'
9 '-y, -x, z+1/2'
10 'y, x, z+1/2'
11 'y, -x, z'
12 '-y, x, z'
13 '-x, y, z+1/2'
14 'x, -y, z+1/2'
15 '-x, -y, z'
16 'x, y, z'
17 'y+1/2, x+1/2, -z'
18 '-y+1/2, -x+1/2, -z'
19 '-y+1/2, x+1/2, -z+1/2'
20 'y+1/2, -x+1/2, -z+1/2'
21 'x+1/2, -y+1/2, -z'
22 '-x+1/2, y+1/2, -z'
23 'x+1/2, y+1/2, -z+1/2'
24 '-x+1/2, -y+1/2, -z+1/2'
25 '-y+1/2, -x+1/2, z'
26 'y+1/2, x+1/2, z'
27 'y+1/2, -x+1/2, z+1/2'
28 '-y+1/2, x+1/2, z+1/2'
29 '-x+1/2, y+1/2, z'
30 'x+1/2, -y+1/2, z'
31 '-x+1/2, -y+1/2, z+1/2'
32 'x+1/2, y+1/2, z+1/2'
loop_
_atom_type_symbol
_atom_type_oxidation_number
Cr0+ 0
B0+ 0
loop_
_atom_site_label
_atom_site_type_symbol
_atom_site_symmetry_multiplicity
_atom_site_Wyckoff_symbol
_atom_site_fract_x
_atom_site_fract_y
_atom_site_fract_z
_atom_site_B_iso_or_equiv
_atom_site_occupancy
_atom_site_attached_hydrogens
Cr1 Cr0+ 8 h 0.167 0.667 0 . 1. 0
B1 B0+ 4 a 0 0 0.25 . 1. 0
#End of TTdata_76127-ICSD