
#(C) 2017 by FIZ Karlsruhe - Leibniz Institute for Information Infrastructure.  All rights reserved.
data_76175-ICSD
_database_code_ICSD 76175
_audit_creation_date 2000-12-16
_chemical_name_systematic 'Vanadium(III) oxide hydroxide'
_chemical_formula_structural 'V O (O H)'
_chemical_formula_sum 'H1 O2 V1'
_chemical_name_structure_type AlOOH(Diaspore)
_chemical_name_mineral Montroseite
_exptl_crystal_density_diffrn 4.07
_publ_section_title

;
The crystal structure of montroseite and a vanadium member of the diaspore
group
;
loop_
_citation_id
_citation_journal_full
_citation_year
_citation_journal_volume
_citation_page_first
_citation_page_last
_citation_journal_id_ASTM
primary 'American Mineralogist' 1953 38 1242 1250 AMMIAY
loop_
_publ_author_name
'Evans, H.T.jr.'
'Block, S.'
_cell_length_a 4.54
_cell_length_b 9.97
_cell_length_c 3.03
_cell_angle_alpha 90.
_cell_angle_beta 90.
_cell_angle_gamma 90.
_cell_volume 137.15
_cell_formula_units_Z 4
_symmetry_space_group_name_H-M 'P b n m'
_symmetry_Int_Tables_number 62
_refine_ls_R_factor_all 0.213
loop_
_symmetry_equiv_pos_site_id
_symmetry_equiv_pos_as_xyz
1 '-x+1/2, y+1/2, z'
2 'x, y, -z+1/2'
3 'x+1/2, -y+1/2, z+1/2'
4 '-x, -y, -z'
5 'x+1/2, -y+1/2, -z'
6 '-x, -y, z+1/2'
7 '-x+1/2, y+1/2, -z+1/2'
8 'x, y, z'
loop_
_atom_type_symbol
_atom_type_oxidation_number
V3+ 3
O2- -2
H1+ 1
loop_
_atom_site_label
_atom_site_type_symbol
_atom_site_symmetry_multiplicity
_atom_site_Wyckoff_symbol
_atom_site_fract_x
_atom_site_fract_y
_atom_site_fract_z
_atom_site_B_iso_or_equiv
_atom_site_occupancy
_atom_site_attached_hydrogens
V1 V3+ 4 c 0.949 0.145 0.25 0.4 1. 0
O1 O2- 4 c 0.297 0.803 0.25 0.4 1. 0
O2 O2- 4 c 0.803 0.949 0.25 0.4 1. 0
#End of TTdata_76175-ICSD