
#(C) 2017 by FIZ Karlsruhe - Leibniz Institute for Information Infrastructure.  All rights reserved.
data_76218-ICSD
_database_code_ICSD 76218
_audit_creation_date 2000-12-16
_chemical_name_systematic 'Manganese selenide - HP'
_chemical_formula_structural 'Mn Se'
_chemical_formula_sum 'Mn1 Se1'
_chemical_name_structure_type Nickeline-NiAs
_exptl_crystal_density_diffrn 6.59
_cell_measurement_pressure 9000000.
_publ_section_title

;
Ueber eine neue Hochdruckmodifikation des MnSe vom Ni As -Typ und ueber die
Mischbarkeit Mn Se - Mn Te
;
loop_
_citation_id
_citation_journal_full
_citation_year
_citation_journal_volume
_citation_page_first
_citation_page_last
_citation_journal_id_ASTM
primary 'High Temperatures-High Pressures' 1972 4 97 99 HTHPAK
loop_
_publ_author_name
'Cemic, L.'
'Neuhaus, A.'
_cell_length_a 3.63
_cell_length_b 3.63
_cell_length_c 5.91
_cell_angle_alpha 90.
_cell_angle_beta 90.
_cell_angle_gamma 120.
_cell_volume 67.44
_cell_formula_units_Z 2
_symmetry_space_group_name_H-M 'P 63/m m c'
_symmetry_Int_Tables_number 194
loop_
_symmetry_equiv_pos_site_id
_symmetry_equiv_pos_as_xyz
1 'x, x-y, -z+1/2'
2 '-x+y, y, -z+1/2'
3 '-y, -x, -z+1/2'
4 '-x+y, -x, -z+1/2'
5 '-y, x-y, -z+1/2'
6 'x, y, -z+1/2'
7 '-x, -x+y, z+1/2'
8 'x-y, -y, z+1/2'
9 'y, x, z+1/2'
10 'x-y, x, z+1/2'
11 'y, -x+y, z+1/2'
12 '-x, -y, z+1/2'
13 '-x, -x+y, -z'
14 'x-y, -y, -z'
15 'y, x, -z'
16 'x-y, x, -z'
17 'y, -x+y, -z'
18 '-x, -y, -z'
19 'x, x-y, z'
20 '-x+y, y, z'
21 '-y, -x, z'
22 '-x+y, -x, z'
23 '-y, x-y, z'
24 'x, y, z'
loop_
_atom_type_symbol
_atom_type_oxidation_number
Mn2+ 2
Se2- -2
loop_
_atom_site_label
_atom_site_type_symbol
_atom_site_symmetry_multiplicity
_atom_site_Wyckoff_symbol
_atom_site_fract_x
_atom_site_fract_y
_atom_site_fract_z
_atom_site_B_iso_or_equiv
_atom_site_occupancy
_atom_site_attached_hydrogens
Mn1 Mn2+ 2 a 0 0 0 . 1. 0
Se1 Se2- 2 c 0.3333 0.6667 0.25 . 1. 0
#End of TTdata_76218-ICSD