
#(C) 2017 by FIZ Karlsruhe - Leibniz Institute for Information Infrastructure.  All rights reserved.
data_76241-ICSD
_database_code_ICSD 76241
_audit_creation_date 2000-12-16
_audit_update_record 2012-08-01
_chemical_name_systematic 'Manganese telluride - HP'
_chemical_formula_structural 'Mn Te'
_chemical_formula_sum 'Mn1 Te1'
_chemical_name_structure_type MnP
_exptl_crystal_density_diffrn 18.24
_cell_measurement_pressure 24000000.
_publ_section_title 'Pressure induced phase transitions of Mn Te'
loop_
_citation_id
_citation_journal_full
_citation_year
_citation_journal_volume
_citation_page_first
_citation_page_last
_citation_journal_id_ASTM
primary 'Journal of Physics C' 1987 20 4689 4694 JPSOAW
loop_
_publ_author_name
'Mimasaka, M.'
'Sakamoto, I.'
'Murata, K.'
'Fujii, J.'
'Onodera, A.'
_cell_length_a 5.773(3)
_cell_length_b 3.763(6)
_cell_length_c 6.119(9)
_cell_angle_alpha 90.
_cell_angle_beta 90.
_cell_angle_gamma 90.
_cell_volume 132.93
_cell_formula_units_Z 8
_symmetry_space_group_name_H-M 'P n m a'
_symmetry_Int_Tables_number 62
loop_
_symmetry_equiv_pos_site_id
_symmetry_equiv_pos_as_xyz
1 'x+1/2, y, -z+1/2'
2 'x, -y+1/2, z'
3 '-x+1/2, y+1/2, z+1/2'
4 '-x, -y, -z'
5 '-x+1/2, -y, z+1/2'
6 '-x, y+1/2, -z'
7 'x+1/2, -y+1/2, -z+1/2'
8 'x, y, z'
loop_
_atom_type_symbol
_atom_type_oxidation_number
Mn2+ 2
Te2- -2
loop_
_atom_site_label
_atom_site_type_symbol
_atom_site_symmetry_multiplicity
_atom_site_Wyckoff_symbol
_atom_site_fract_x
_atom_site_fract_y
_atom_site_fract_z
_atom_site_B_iso_or_equiv
_atom_site_occupancy
_atom_site_attached_hydrogens
Mn1 Mn2+ 4 c 0.16 0.25 0.6 . 1. 0
Te1 Te2- 4 c 0.005 0.25 0.22 . 1. 0
#End of TTdata_76241-ICSD