
#(C) 2017 by FIZ Karlsruhe - Leibniz Institute for Information Infrastructure.  All rights reserved.
data_76293-ICSD
_database_code_ICSD 76293
_audit_creation_date 2000-12-16
_chemical_name_systematic 'Yttrium platinum germanide (3/4/6)'
_chemical_formula_structural 'Y3 Pt4 Ge6'
_chemical_formula_sum 'Ge6 Pt4 Y3'
_exptl_crystal_density_diffrn 10.13
_publ_section_title
'Crystal structure of Y3 Pt4 Ge6: An intergrowth of Ba Al4 and Y Ir Ge2 slabs'
loop_
_citation_id
_citation_journal_full
_citation_year
_citation_journal_volume
_citation_page_first
_citation_page_last
_citation_journal_id_ASTM
primary 'Journal of the Less-Common Metals' 1990 167 45 52 JCOMAH
loop_
_publ_author_name
'Venturini, G.'
'Malaman, B.'
_cell_length_a 8.6922(26)
_cell_length_b 4.3062(8)
_cell_length_c 13.1615(32)
_cell_angle_alpha 90.
_cell_angle_beta 99.45(4)
_cell_angle_gamma 90.
_cell_volume 485.95
_cell_formula_units_Z 2
_symmetry_space_group_name_H-M 'P 1 21/m 1'
_symmetry_Int_Tables_number 11
_refine_ls_R_factor_all 0.047
loop_
_symmetry_equiv_pos_site_id
_symmetry_equiv_pos_as_xyz
1 'x, -y+1/2, z'
2 '-x, -y, -z'
3 '-x, y+1/2, -z'
4 'x, y, z'
loop_
_atom_type_symbol
_atom_type_oxidation_number
Y0+ 0
Pt0+ 0
Ge0+ 0
loop_
_atom_site_label
_atom_site_type_symbol
_atom_site_symmetry_multiplicity
_atom_site_Wyckoff_symbol
_atom_site_fract_x
_atom_site_fract_y
_atom_site_fract_z
_atom_site_B_iso_or_equiv
_atom_site_occupancy
_atom_site_attached_hydrogens
Y1 Y0+ 2 e 0.4111(6) 0.25 0.1865(5) 0.44(8) 1. 0
Y2 Y0+ 2 e 0.9327(6) 0.25 0.1872(5) 0.45(8) 1. 0
Y3 Y0+ 2 e 0.2347(5) 0.25 0.4396(4) 0.27(6) 1. 0
Pt1 Pt0+ 2 e 0.8504(3) 0.25 0.9117(2) 0.42(4) 1. 0
Pt2 Pt0+ 2 e 0.3527(3) 0.25 0.8992(2) 0.61(4) 1. 0
Pt3 Pt0+ 2 e 0.5328(3) 0.25 0.6249(2) 0.27(4) 1. 0
Pt4 Pt0+ 2 e 0.0297(3) 0.25 0.6253(2) 0.19(4) 1. 0
Ge1 Ge0+ 2 e 0.1262(8) 0.25 0.9958(7) 0.65(11) 1. 0
Ge2 Ge0+ 2 e 0.6223(8) 0.25 0.0001(7) 0.61(10) 1. 0
Ge3 Ge0+ 2 e 0.8055(9) 0.25 0.7218(7) 0.88(12) 1. 0
Ge4 Ge0+ 2 e 0.3043(10) 0.25 0.7177(8) 1.13(13) 1. 0
Ge5 Ge0+ 2 e 0.5855(6) 0.25 0.4309(6) 0.32(8) 1. 0
Ge6 Ge0+ 2 e 0.8809(6) 0.25 0.4315(5) 0.12(7) 1. 0
#End of TTdata_76293-ICSD