
data_76385-ICSD
_database_code_ICSD 76385
_audit_creation_date 2000-12-16
_audit_update_record 2012-08-01
_chemical_name_systematic 'Niobium nitride (1/1) - gamma'
_chemical_formula_structural 'Nb N'
_chemical_formula_sum 'N1 Nb1'
_chemical_name_structure_type WC
_exptl_crystal_density_diffrn 8.43
_cell_length_a 2.958
_cell_length_b 2.958
_cell_length_c 2.779
_cell_angle_alpha 90.
_cell_angle_beta 90.
_cell_angle_gamma 120.
_cell_volume 21.06
_cell_formula_units_Z 1
_symmetry_space_group_name_H-M 'P -6 m 2'
_symmetry_Int_Tables_number 187
loop_
_symmetry_equiv_pos_site_id
_symmetry_equiv_pos_as_xyz
1 'x, x-y, -z'
2 '-x+y, y, -z'
3 '-y, -x, -z'
4 'x, x-y, z'
5 '-x+y, y, z'
6 '-y, -x, z'
7 '-x+y, -x, -z'
8 '-y, x-y, -z'
9 'x, y, -z'
10 '-x+y, -x, z'
11 '-y, x-y, z'
12 'x, y, z'
loop_
_atom_type_symbol
_atom_type_oxidation_number
Nb3+ 3
N3- -3
loop_
_atom_site_label
_atom_site_type_symbol
_atom_site_symmetry_multiplicity
_atom_site_Wyckoff_symbol
_atom_site_fract_x
_atom_site_fract_y
_atom_site_fract_z
_atom_site_B_iso_or_equiv
_atom_site_occupancy
_atom_site_attached_hydrogens
Nb1 Nb3+ 1 a 0 0 0 . 1. 0
N1 N3- 1 d 0.3333 0.6667 0.5 . 1. 0
