
data_76402-ICSD
_database_code_ICSD 76402
_audit_creation_date 2000-12-16
_audit_update_record 2005-10-01
_chemical_name_systematic 'Nickel nitride (3/1)'
_chemical_formula_structural 'Ni3 N'
_chemical_formula_sum 'N1 Ni3'
_chemical_name_structure_type Fe3N1+x
_exptl_crystal_density_diffrn 7.92
_cell_length_a 4.625
_cell_length_b 4.625
_cell_length_c 4.305
_cell_angle_alpha 90.
_cell_angle_beta 90.
_cell_angle_gamma 120.
_cell_volume 79.75
_cell_formula_units_Z 2
_symmetry_space_group_name_H-M 'P 63 2 2'
_symmetry_Int_Tables_number 182
loop_
_symmetry_equiv_pos_site_id
_symmetry_equiv_pos_as_xyz
1 'x, x-y, -z+1/2'
2 '-x+y, y, -z+1/2'
3 '-y, -x, -z+1/2'
4 'x-y, x, z+1/2'
5 'y, -x+y, z+1/2'
6 '-x, -y, z+1/2'
7 '-x, -x+y, -z'
8 'x-y, -y, -z'
9 'y, x, -z'
10 '-x+y, -x, z'
11 '-y, x-y, z'
12 'x, y, z'
loop_
_atom_type_symbol
_atom_type_oxidation_number
Ni0+ 0
N0+ 0
loop_
_atom_site_label
_atom_site_type_symbol
_atom_site_symmetry_multiplicity
_atom_site_Wyckoff_symbol
_atom_site_fract_x
_atom_site_fract_y
_atom_site_fract_z
_atom_site_B_iso_or_equiv
_atom_site_occupancy
_atom_site_attached_hydrogens
Ni1 Ni0+ 6 g 0.333 0 0 . 1. 0
N1 N0+ 2 c 0.3333 0.6667 0.25 . 1. 0
