
#(C) 2017 by FIZ Karlsruhe - Leibniz Institute for Information Infrastructure.  All rights reserved.
data_76509-ICSD
_database_code_ICSD 76509
_audit_creation_date 2000-12-16
_audit_update_record 2014-08-01
_chemical_name_systematic 'Iridium yttrium germanide (1/1/2)'
_chemical_formula_structural 'Ir Y Ge2'
_chemical_formula_sum 'Ge2 Ir1 Y1'
_chemical_name_structure_type YIrGe2
_exptl_crystal_density_diffrn 9.45
_publ_section_title

;
Une nouvell famille structurale de germaniures ternaires: R Ir Ge2 (R= Y,
Pr-Sm, Gd-Er) et M Pt Ge2 (M= Ca, Y, Ce-Sm, Gd-Tm)
;
loop_
_citation_id
_citation_journal_full
_citation_year
_citation_journal_volume
_citation_page_first
_citation_page_last
_citation_journal_id_ASTM
primary 'Journal of the Less-Common Metals' 1987 128 249 257 JCOMAH
loop_
_publ_author_name
'Francois, M.'
'Venturini, G.'
'McRae, E.'
'Malaman, B.'
'Roques, B.'
_cell_length_a 4.2635(9)
_cell_length_b 15.9786(21)
_cell_length_c 8.8134(16)
_cell_angle_alpha 90.
_cell_angle_beta 90.
_cell_angle_gamma 90.
_cell_volume 600.41
_cell_formula_units_Z 8
_symmetry_space_group_name_H-M 'I m m m'
_symmetry_Int_Tables_number 71
_refine_ls_R_factor_all 0.028
loop_
_symmetry_equiv_pos_site_id
_symmetry_equiv_pos_as_xyz
1 'x, y, -z'
2 'x, -y, z'
3 '-x, y, z'
4 '-x, -y, -z'
5 '-x, -y, z'
6 '-x, y, -z'
7 'x, -y, -z'
8 'x, y, z'
9 'x+1/2, y+1/2, -z+1/2'
10 'x+1/2, -y+1/2, z+1/2'
11 '-x+1/2, y+1/2, z+1/2'
12 '-x+1/2, -y+1/2, -z+1/2'
13 '-x+1/2, -y+1/2, z+1/2'
14 '-x+1/2, y+1/2, -z+1/2'
15 'x+1/2, -y+1/2, -z+1/2'
16 'x+1/2, y+1/2, z+1/2'
loop_
_atom_type_symbol
_atom_type_oxidation_number
Ir0+ 0
Y0+ 0
Ge0+ 0
loop_
_atom_site_label
_atom_site_type_symbol
_atom_site_symmetry_multiplicity
_atom_site_Wyckoff_symbol
_atom_site_fract_x
_atom_site_fract_y
_atom_site_fract_z
_atom_site_B_iso_or_equiv
_atom_site_occupancy
_atom_site_attached_hydrogens
Ir1 Ir0+ 8 l 0.5 0.1459(1) 0.2494(1) . 1. 0
Y1 Y0+ 4 i 0 0 0.2607(3) . 1. 0
Y2 Y0+ 4 h 0 0.2057(2) 0.5 . 1. 0
Ge1 Ge0+ 4 h 0.5 0.0785(3) 0 . 1. 0
Ge2 Ge0+ 4 g 0.5 0.0770(3) 0.5 . 1. 0
Ge3 Ge0+ 8 l 0.5 0.2998(2) 0.3474(3) . 1. 0
loop_
_atom_site_aniso_label
_atom_site_aniso_type_symbol
_atom_site_aniso_U_11
_atom_site_aniso_U_22
_atom_site_aniso_U_33
_atom_site_aniso_U_12
_atom_site_aniso_U_13
_atom_site_aniso_U_23
Ir1 Ir0+ 0.0012(3) 0.0067(5) 0.0026(3) 0 0 0.0002(3)
Y1 Y0+ 0.0037(8) 0.0084(11) 0.0058(8) 0 0 0
Y2 Y0+ 0.0038(8) 0.0054(11) 0.0044(6) 0 0 0
Ge1 Ge0+ 0.0131(13) 0.0105(13) 0.0072(10) 0 0 0
Ge2 Ge0+ 0.0072(13) 0.0078(11) 0.006(1) 0 0 0
Ge3 Ge0+ 0.0021(6) 0.0098(9) 0.0047(6) 0 0 0
#End of TTdata_76509-ICSD