
#(C) 2017 by FIZ Karlsruhe - Leibniz Institute for Information Infrastructure.  All rights reserved.
data_76681-ICSD
_database_code_ICSD 76681
_audit_creation_date 2001-07-16
_audit_update_record 2010-02-01
_chemical_name_systematic 'Nickel zirconium phosphide (4/1/2)'
_chemical_formula_structural 'Ni4 Zr P2'
_chemical_formula_sum 'Ni4 P2 Zr1'
_chemical_name_structure_type Fe4Si2Zr
_exptl_crystal_density_diffrn 7.45
_publ_section_title
'The new phosphides Zr Ni4 P2 and Zr Ni2 P2 and their crystal structures'
loop_
_citation_id
_citation_journal_full
_citation_year
_citation_journal_volume
_citation_page_first
_citation_page_last
_citation_journal_id_ASTM
primary 'Zhurnal Neorganicheskoi Khimii' 1986 31 2412 2414 ZNOKAQ
loop_
_publ_author_name
'Lomnitskaya, Ya.F.'
'Kuz'ma, Yu.B.'
_cell_length_a 6.947(3)
_cell_length_b 6.947
_cell_length_c 3.583(2)
_cell_angle_alpha 90.
_cell_angle_beta 90.
_cell_angle_gamma 90.
_cell_volume 172.92
_cell_formula_units_Z 2
_symmetry_space_group_name_H-M 'P 42/m n m'
_symmetry_Int_Tables_number 136
_refine_ls_R_factor_all 0.11
loop_
_symmetry_equiv_pos_site_id
_symmetry_equiv_pos_as_xyz
1 '-y+1/2, x+1/2, -z+1/2'
2 'y+1/2, -x+1/2, -z+1/2'
3 'y, x, -z'
4 '-y, -x, -z'
5 'y+1/2, -x+1/2, z+1/2'
6 '-y+1/2, x+1/2, z+1/2'
7 '-y, -x, z'
8 'y, x, z'
9 'x+1/2, -y+1/2, -z+1/2'
10 '-x+1/2, y+1/2, -z+1/2'
11 'x, y, -z'
12 '-x, -y, -z'
13 '-x+1/2, y+1/2, z+1/2'
14 'x+1/2, -y+1/2, z+1/2'
15 '-x, -y, z'
16 'x, y, z'
loop_
_atom_type_symbol
_atom_type_oxidation_number
Ni0+ 0
Zr0+ 0
P0+ 0
loop_
_atom_site_label
_atom_site_type_symbol
_atom_site_symmetry_multiplicity
_atom_site_Wyckoff_symbol
_atom_site_fract_x
_atom_site_fract_y
_atom_site_fract_z
_atom_site_B_iso_or_equiv
_atom_site_occupancy
_atom_site_attached_hydrogens
Ni1 Ni0+ 8 i 0.099 0.339 0 . 1. 0
Zr1 Zr0+ 2 b 0 0 0.5 . 1. 0
P1 P0+ 4 g 0.204 0.796 0 . 1. 0
#End of TTdata_76681-ICSD