
#(C) 2017 by FIZ Karlsruhe - Leibniz Institute for Information Infrastructure.  All rights reserved.
data_76734-ICSD
_database_code_ICSD 76734
_audit_creation_date 2001-07-16
_audit_update_record 2017-08-01
_chemical_name_systematic 'Chromium(IV) boride'
_chemical_formula_structural 'Cr3 B4'
_chemical_formula_sum 'B4 Cr3'
_chemical_name_structure_type Cr3B4
_exptl_crystal_density_diffrn 5.77
_publ_section_title

;
Investigations on the binary systems of boron with chromium, columbium, nickel
and thorium including a discussion of the phase 'TiB' in the titanium-boron
system
;
loop_
_citation_id
_citation_journal_full
_citation_year
_citation_journal_volume
_citation_page_first
_citation_page_last
_citation_journal_id_ASTM
primary 'Acta Chemica Scandinavica (1-27,1973-42,1988)' 1950 4 160 164 ACSAA4
loop_
_publ_author_name
'Andersson, Lars-Henrik'
'Kiessling, Roland'
_cell_length_a 2.984
_cell_length_b 13.02
_cell_length_c 2.953
_cell_angle_alpha 90.
_cell_angle_beta 90.
_cell_angle_gamma 90.
_cell_volume 114.73
_cell_formula_units_Z 2
_symmetry_space_group_name_H-M 'I m m m'
_symmetry_Int_Tables_number 71
loop_
_symmetry_equiv_pos_site_id
_symmetry_equiv_pos_as_xyz
1 'x, y, -z'
2 'x, -y, z'
3 '-x, y, z'
4 '-x, -y, -z'
5 '-x, -y, z'
6 '-x, y, -z'
7 'x, -y, -z'
8 'x, y, z'
9 'x+1/2, y+1/2, -z+1/2'
10 'x+1/2, -y+1/2, z+1/2'
11 '-x+1/2, y+1/2, z+1/2'
12 '-x+1/2, -y+1/2, -z+1/2'
13 '-x+1/2, -y+1/2, z+1/2'
14 '-x+1/2, y+1/2, -z+1/2'
15 'x+1/2, -y+1/2, -z+1/2'
16 'x+1/2, y+1/2, z+1/2'
loop_
_atom_type_symbol
_atom_type_oxidation_number
Cr4+ 4
B3- -3
loop_
_atom_site_label
_atom_site_type_symbol
_atom_site_symmetry_multiplicity
_atom_site_Wyckoff_symbol
_atom_site_fract_x
_atom_site_fract_y
_atom_site_fract_z
_atom_site_B_iso_or_equiv
_atom_site_occupancy
_atom_site_attached_hydrogens
Cr1 Cr4+ 2 c 0.5 0.5 0 . 1. 0
Cr2 Cr4+ 4 g 0 0.186(1) 0 . 1. 0
B1 B3- 4 g 0 0.362(3) 0 . 1. 0
B2 B3- 4 h 0 0.435(3) 0.5 . 1. 0
#End of TTdata_76734-ICSD