
data_76945-ICSD
_database_code_ICSD 76945
_audit_creation_date 2001-07-16
_audit_update_record 2015-08-01
_chemical_name_systematic 'Iron silicide (1/1)'
_chemical_formula_structural 'Fe Si'
_chemical_formula_sum 'Fe1 Si1'
_chemical_name_structure_type Fersilicite-FeSi
_chemical_name_mineral Naquite
_exptl_crystal_density_diffrn 6.16
_cell_length_a 4.489(5)
_cell_length_b 4.489
_cell_length_c 4.489
_cell_angle_alpha 90.
_cell_angle_beta 90.
_cell_angle_gamma 90.
_cell_volume 90.46
_cell_formula_units_Z 4
_symmetry_space_group_name_H-M 'P 21 3'
_symmetry_Int_Tables_number 198
loop_
_symmetry_equiv_pos_site_id
_symmetry_equiv_pos_as_xyz
1 '-z+1/2, -x, y+1/2'
2 '-y+1/2, -z, x+1/2'
3 '-x+1/2, -y, z+1/2'
4 '-z, x+1/2, -y+1/2'
5 '-y, z+1/2, -x+1/2'
6 '-x, y+1/2, -z+1/2'
7 'z+1/2, -x+1/2, -y'
8 'y+1/2, -z+1/2, -x'
9 'x+1/2, -y+1/2, -z'
10 'z, x, y'
11 'y, z, x'
12 'x, y, z'
loop_
_atom_type_symbol
_atom_type_oxidation_number
Fe0+ 0
Si0+ 0
loop_
_atom_site_label
_atom_site_type_symbol
_atom_site_symmetry_multiplicity
_atom_site_Wyckoff_symbol
_atom_site_fract_x
_atom_site_fract_y
_atom_site_fract_z
_atom_site_B_iso_or_equiv
_atom_site_occupancy
_atom_site_attached_hydrogens
Fe1 Fe0+ 4 a 0.137(2) 0.137 0.137 . 1. 0
Si1 Si0+ 4 a 0.842(4) 0.842 0.842 . 1. 0
