
#(C) 2017 by FIZ Karlsruhe - Leibniz Institute for Information Infrastructure.  All rights reserved.
data_77321-ICSD
_database_code_ICSD 77321
_audit_creation_date 2003-04-01
_chemical_name_systematic 'Lithium cyanide'
_chemical_formula_structural 'Li (C N)'
_chemical_formula_sum 'C1 Li1 N1'
_exptl_crystal_density_diffrn 1.02
_publ_section_title 'The crystal structures of lithium cyanide'
loop_
_citation_id
_citation_journal_full
_citation_year
_citation_journal_volume
_citation_page_first
_citation_page_last
_citation_journal_id_ASTM
primary 'Recueil des Travaux Chimiques des Pays-Bas et de la Belgique' 1942 61
244 252 RTCPA3
loop_
_publ_author_name
'Lely, J.A.'
'Bijvoet, J.M.'
_cell_length_a 8.75
_cell_length_b 3.74
_cell_length_c 6.53
_cell_angle_alpha 90.
_cell_angle_beta 90.
_cell_angle_gamma 90.
_cell_volume 213.69
_cell_formula_units_Z 4
_symmetry_space_group_name_H-M 'P n m a'
_symmetry_Int_Tables_number 62
loop_
_symmetry_equiv_pos_site_id
_symmetry_equiv_pos_as_xyz
1 'x+1/2, y, -z+1/2'
2 'x, -y+1/2, z'
3 '-x+1/2, y+1/2, z+1/2'
4 '-x, -y, -z'
5 '-x+1/2, -y, z+1/2'
6 '-x, y+1/2, -z'
7 'x+1/2, -y+1/2, -z+1/2'
8 'x, y, z'
loop_
_atom_type_symbol
_atom_type_oxidation_number
Li1+ 1
C2+ 2
N3- -3
loop_
_atom_site_label
_atom_site_type_symbol
_atom_site_symmetry_multiplicity
_atom_site_Wyckoff_symbol
_atom_site_fract_x
_atom_site_fract_y
_atom_site_fract_z
_atom_site_B_iso_or_equiv
_atom_site_occupancy
_atom_site_attached_hydrogens
Li1 Li1+ 4 c 0.374(3) 0.25 0.471(3) . 1. 0
C1 C2+ 4 c 0.190(2) 0.25 0.261(2) . 1. 0
N1 N3- 4 c 0.094(2) 0.25 0.142(2) . 1. 0
#End of TTdata_77321-ICSD