
data_77832-ICSD
_database_code_ICSD 77832
_audit_creation_date 2003-04-01
_audit_update_record 2013-08-01
_chemical_name_systematic 'Vanadium disulfide'
_chemical_formula_structural 'V S2'
_chemical_formula_sum 'S2 V1'
_exptl_crystal_density_diffrn 1.75
_cell_length_a 3.366(1)
_cell_length_b 5.830(1)
_cell_length_c 22.30(1)
_cell_angle_alpha 90.
_cell_angle_beta 90.
_cell_angle_gamma 90.
_cell_volume 437.61
_cell_formula_units_Z 4
_symmetry_space_group_name_H-M 'C 2 2 21'
_symmetry_Int_Tables_number 20
_refine_ls_R_factor_all 0.153
loop_
_symmetry_equiv_pos_site_id
_symmetry_equiv_pos_as_xyz
1 '-x, y, -z+1/2'
2 '-x, -y, z+1/2'
3 'x, -y, -z'
4 'x, y, z'
5 '-x+1/2, y+1/2, -z+1/2'
6 '-x+1/2, -y+1/2, z+1/2'
7 'x+1/2, -y+1/2, -z'
8 'x+1/2, y+1/2, z'
loop_
_atom_type_symbol
_atom_type_oxidation_number
V4+ 4
S2- -2
loop_
_atom_site_label
_atom_site_type_symbol
_atom_site_symmetry_multiplicity
_atom_site_Wyckoff_symbol
_atom_site_fract_x
_atom_site_fract_y
_atom_site_fract_z
_atom_site_B_iso_or_equiv
_atom_site_occupancy
_atom_site_attached_hydrogens
V1 V4+ 4 a 0 0 0 . 1. 0
S1 S2- 8 c 0 0.335(2) 0.06306(30) . 1. 0
loop_
_atom_site_aniso_label
_atom_site_aniso_type_symbol
_atom_site_aniso_U_11
_atom_site_aniso_U_22
_atom_site_aniso_U_33
_atom_site_aniso_U_12
_atom_site_aniso_U_13
_atom_site_aniso_U_23
V1 V4+ 0.041(7) 0.031(9) 0.025(2) 0 0 -0.010(8)
S1 S2- 0.025(5) 0.003(4) 0.015(4) 0 0 0.006(5)
