
#(C) 2017 by FIZ Karlsruhe - Leibniz Institute for Information Infrastructure.  All rights reserved.
data_77856-ICSD
_database_code_ICSD 77856
_audit_creation_date 2003-04-01
_chemical_name_systematic 'Vanadium phosphide (2/1)'
_chemical_formula_structural 'V2 P'
_chemical_formula_sum 'P1 V2'
_chemical_name_structure_type TiNiSi-MgSrSi
_exptl_crystal_density_diffrn 5.7
_publ_section_title 'The crystal structure of V2 P'
loop_
_citation_id
_citation_journal_full
_citation_year
_citation_journal_volume
_citation_page_first
_citation_page_last
_citation_journal_id_ASTM
primary 'Acta Chemica Scandinavica, Series A: (28,1974-)' 1976 30 387 389 ACAPCT
loop_
_publ_author_name
'Berger, R.'
'Tergenius, L.E.'
_cell_length_a 6.2045(2)
_cell_length_b 3.3052(1)
_cell_length_c 7.5440(2)
_cell_angle_alpha 90.
_cell_angle_beta 90.
_cell_angle_gamma 90.
_cell_volume 154.71
_cell_formula_units_Z 4
_symmetry_space_group_name_H-M 'P n m a'
_symmetry_Int_Tables_number 62
_refine_ls_R_factor_all 0.029
loop_
_symmetry_equiv_pos_site_id
_symmetry_equiv_pos_as_xyz
1 'x+1/2, y, -z+1/2'
2 'x, -y+1/2, z'
3 '-x+1/2, y+1/2, z+1/2'
4 '-x, -y, -z'
5 '-x+1/2, -y, z+1/2'
6 '-x, y+1/2, -z'
7 'x+1/2, -y+1/2, -z+1/2'
8 'x, y, z'
loop_
_atom_type_symbol
_atom_type_oxidation_number
V0+ 0
P0+ 0
loop_
_atom_site_label
_atom_site_type_symbol
_atom_site_symmetry_multiplicity
_atom_site_Wyckoff_symbol
_atom_site_fract_x
_atom_site_fract_y
_atom_site_fract_z
_atom_site_B_iso_or_equiv
_atom_site_occupancy
_atom_site_attached_hydrogens
V1 V0+ 4 c 0.86148(8) 0.25 0.05891(7) . 1. 0
V2 V0+ 4 c 0.96041(9) 0.25 0.66624(7) . 1. 0
P1 P0+ 4 c 0.24723(14) 0.25 0.14183(10) . 1. 0
loop_
_atom_site_aniso_label
_atom_site_aniso_type_symbol
_atom_site_aniso_U_11
_atom_site_aniso_U_22
_atom_site_aniso_U_33
_atom_site_aniso_U_12
_atom_site_aniso_U_13
_atom_site_aniso_U_23
V1 V0+ 0.00446(20) 0.00558(20) 0.00392(20) 0 -0.00004(16) 0
V2 V0+ 0.00620(21) 0.00584(22) 0.00605(21) 0 -0.00011(7) 0
P1 P0+ 0.00524(29) 0.00455(31) 0.00570(21) 0 -0.00004(25) 0
#End of TTdata_77856-ICSD