
#(C) 2017 by FIZ Karlsruhe - Leibniz Institute for Information Infrastructure.  All rights reserved.
data_78364-ICSD
_database_code_ICSD 78364
_audit_creation_date 1996-04-22
_audit_update_record 2014-08-01
_chemical_name_systematic 'Lithium silicide (1/1)'
_chemical_formula_structural 'Li Si'
_chemical_formula_sum 'Li1 Si1'
_chemical_name_structure_type LiSi
_exptl_crystal_density_diffrn 1.85
_publ_section_title
'Hochdruck-Synthese von Li Si: Raumnetzstruktur aus dreibindigen (Si-) - Ionen'
loop_
_citation_id
_citation_journal_full
_citation_year
_citation_journal_volume
_citation_page_first
_citation_page_last
_citation_journal_id_ASTM
primary 'Angewandte Chemie (German Edition)' 1993 105 1532 1534 ANCEAD
loop_
_publ_author_name
'Evers, J.'
'Oehlinger, G.'
'Sextl, G.'
_cell_length_a 9.353(1)
_cell_length_b 9.353(1)
_cell_length_c 5.743(1)
_cell_angle_alpha 90.
_cell_angle_beta 90.
_cell_angle_gamma 90.
_cell_volume 502.39
_cell_formula_units_Z 16
_symmetry_space_group_name_H-M 'I 41/a Z'
_symmetry_Int_Tables_number 88
_refine_ls_R_factor_all 0.0645
loop_
_symmetry_equiv_pos_site_id
_symmetry_equiv_pos_as_xyz
1 '-y+3/4, x+3/4, -z+3/4'
2 'y+1/4, -x+3/4, -z+3/4'
3 'x, y+1/2, -z'
4 '-x, -y, -z'
5 'y+1/4, -x+1/4, z+1/4'
6 '-y+3/4, x+1/4, z+1/4'
7 '-x, -y+1/2, z'
8 'x, y, z'
9 '-y+1/4, x+1/4, -z+1/4'
10 'y+3/4, -x+1/4, -z+1/4'
11 'x+1/2, y, -z+1/2'
12 '-x+1/2, -y+1/2, -z+1/2'
13 'y+3/4, -x+3/4, z+3/4'
14 '-y+1/4, x+3/4, z+3/4'
15 '-x+1/2, -y, z+1/2'
16 'x+1/2, y+1/2, z+1/2'
loop_
_atom_type_symbol
_atom_type_oxidation_number
Li1+ 1
Si1- -1
loop_
_atom_site_label
_atom_site_type_symbol
_atom_site_symmetry_multiplicity
_atom_site_Wyckoff_symbol
_atom_site_fract_x
_atom_site_fract_y
_atom_site_fract_z
_atom_site_B_iso_or_equiv
_atom_site_occupancy
_atom_site_attached_hydrogens
Li1 Li1+ 16 f 0.082(2) 0.885(2) 0.058(4) . 1. 0
Si1 Si1- 16 f 0.1109(3) 0.9526(3) 0.5941(5) . 1. 0
loop_
_atom_site_aniso_label
_atom_site_aniso_type_symbol
_atom_site_aniso_U_11
_atom_site_aniso_U_22
_atom_site_aniso_U_33
_atom_site_aniso_U_12
_atom_site_aniso_U_13
_atom_site_aniso_U_23
Li1 Li1+ 0.0198(68) 0.0198(68) 0.037(13) 0 0 0
Si1 Si1- 0.0112(11) 0.0112(11) 0.0280(19) 0 0 0
#End of TTdata_78364-ICSD