
#(C) 2017 by FIZ Karlsruhe - Leibniz Institute for Information Infrastructure.  All rights reserved.
data_78719-ICSD
_database_code_ICSD 78719
_audit_creation_date 1997-05-13
_audit_update_record 2014-08-01
_chemical_name_systematic 'Silver lanthanum titanate'
_chemical_formula_structural 'Ag La (Ti O4)'
_chemical_formula_sum 'Ag1 La1 O4 Ti1'
_chemical_name_structure_type (La,K)2CuO4
_exptl_crystal_density_diffrn 6.39
_publ_section_title

;
Synthesis and ionic conductivity of novel layered perovskite compound, Ag La
Ti O4 and Ag Eu Ti O4
;
loop_
_citation_id
_citation_journal_full
_citation_year
_citation_journal_volume
_citation_page_first
_citation_page_last
_citation_journal_id_ASTM
primary 'Solid State Ionics' 1995 81 267 271 SSIOD3
loop_
_publ_author_name
'Toda, K.'
'Kurita, S.'
'Sato, M.'
_cell_length_a 3.7472(1)
_cell_length_b 3.7472(1)
_cell_length_c 13.2755(5)
_cell_angle_alpha 90.
_cell_angle_beta 90.
_cell_angle_gamma 90.
_cell_volume 186.41
_cell_formula_units_Z 2
_symmetry_space_group_name_H-M 'P 4/n m m S'
_symmetry_Int_Tables_number 129
_refine_ls_R_factor_all 0.085
loop_
_symmetry_equiv_pos_site_id
_symmetry_equiv_pos_as_xyz
1 '-y+1/2, -x+1/2, z'
2 'y+1/2, x+1/2, z'
3 '-y, -x, -z'
4 'y, x, -z'
5 'y+1/2, -x+1/2, z'
6 '-y+1/2, x+1/2, z'
7 'y, -x, -z'
8 '-y, x, -z'
9 'x+1/2, -y+1/2, -z'
10 '-x+1/2, y+1/2, -z'
11 'x, -y, z'
12 '-x, y, z'
13 '-x+1/2, -y+1/2, -z'
14 'x+1/2, y+1/2, -z'
15 '-x, -y, z'
16 'x, y, z'
loop_
_atom_type_symbol
_atom_type_oxidation_number
Ag1+ 1
La3+ 3
Ti4+ 4
O2- -2
loop_
_atom_site_label
_atom_site_type_symbol
_atom_site_symmetry_multiplicity
_atom_site_Wyckoff_symbol
_atom_site_fract_x
_atom_site_fract_y
_atom_site_fract_z
_atom_site_B_iso_or_equiv
_atom_site_occupancy
_atom_site_attached_hydrogens
Ag1 Ag1+ 2 c 0 0.5 0.5806(5) 0.2(1) 1. 0
La1 La3+ 2 c 0 0.5 0.8908(4) 0.2(1) 1. 0
Ti1 Ti4+ 2 c 0 0.5 0.276(1) 0.2(1) 1. 0
O1 O2- 4 f 0 0 0.241(3) 0.2(1) 1. 0
O2 O2- 2 c 0 0.5 0.077(3) 0.2(1) 1. 0
O3 O2- 2 c 0 0.5 0.404(3) 0.2(1) 1. 0
#End of TTdata_78719-ICSD