
#(C) 2017 by FIZ Karlsruhe - Leibniz Institute for Information Infrastructure.  All rights reserved.
data_78786-ICSD
_database_code_ICSD 78786
_audit_creation_date 1997-11-10
_audit_update_record 1999-11-30
_chemical_name_systematic 'Dithallium tetrapalladium hexaselenide'
_chemical_formula_structural 'Tl2 Pd4 Se6'
_chemical_formula_sum 'Pd4 Se6 Tl2'
_chemical_name_structure_type Tl2Pt4Te6
_exptl_crystal_density_diffrn 8.18
_publ_section_title

;
Ternaere Thalliumplatin- und Thalliumpalladiumchalkogenide Tl2 M4 X6.
Synthesen, Kristallstruktur und Bindungsverhaeltnisse
;
loop_
_citation_id
_citation_journal_full
_citation_year
_citation_journal_volume
_citation_page_first
_citation_page_last
_citation_journal_id_ASTM
primary 'Zeitschrift fuer Anorganische und Allgemeine Chemie (1950) (DE)' 1995
621 2083 2088 ZAACAB
loop_
_publ_author_name
'Bronger, W.'
'Bonsmann, B.'
_cell_length_a 7.3466(12)
_cell_length_b 7.3466(12)
_cell_length_c 5.6817(14)
_cell_angle_alpha 90.
_cell_angle_beta 90.
_cell_angle_gamma 120.
_cell_volume 265.57
_cell_formula_units_Z 1
_symmetry_space_group_name_H-M 'P -3 m 1'
_symmetry_Int_Tables_number 164
_refine_ls_R_factor_all 0.027
loop_
_symmetry_equiv_pos_site_id
_symmetry_equiv_pos_as_xyz
1 'x-y, -y, -z'
2 '-x, -x+y, -z'
3 'y, x, -z'
4 'x-y, x, -z'
5 'y, -x+y, -z'
6 '-x, -y, -z'
7 '-x+y, y, z'
8 'x, x-y, z'
9 '-y, -x, z'
10 '-x+y, -x, z'
11 '-y, x-y, z'
12 'x, y, z'
loop_
_atom_type_symbol
_atom_type_oxidation_number
Tl1+ 1
Pd4+ 4
Pd2+ 2
Se2- -2
loop_
_atom_site_label
_atom_site_type_symbol
_atom_site_symmetry_multiplicity
_atom_site_Wyckoff_symbol
_atom_site_fract_x
_atom_site_fract_y
_atom_site_fract_z
_atom_site_B_iso_or_equiv
_atom_site_occupancy
_atom_site_attached_hydrogens
Tl1 Tl1+ 2 d 0.3333 0.6667 0.3587(2) . 1. 0
Pd1 Pd4+ 1 a 0 0 0 . 1. 0
Pd2 Pd2+ 3 e 0.5 0 0 . 1. 0
Se1 Se2- 6 i 0.1689(1) -.1689(1) 0.7740(2) . 1. 0
loop_
_atom_site_aniso_label
_atom_site_aniso_type_symbol
_atom_site_aniso_U_11
_atom_site_aniso_U_22
_atom_site_aniso_U_33
_atom_site_aniso_U_12
_atom_site_aniso_U_13
_atom_site_aniso_U_23
Tl1 Tl1+ 0.0189(2) 0.0189(2) 0.0080(3) 0.0095(1) 0 0
Pd1 Pd4+ 0.0059(6) 0.0059(6) 0.0082(8) 0.0030(3) 0 0
Pd2 Pd2+ 0.0081(4) 0.0105(6) 0.0113(4) 0.0053(3) -.0002(3) -.0004(3)
Se1 Se2- 0.0106(2) 0.0106(2) 0.0107(4) 0.0063(3) 0.0004(2) -.0004(2)
#End of TTdata_78786-ICSD