
#(C) 2017 by FIZ Karlsruhe - Leibniz Institute for Information Infrastructure.  All rights reserved.
data_78969-ICSD
_database_code_ICSD 78969
_audit_creation_date 1998-06-26
_audit_update_record 2010-02-01
_chemical_name_systematic 'Yttrium aluminium germanide (2/1/3)'
_chemical_formula_structural 'Y2 Al Ge3'
_chemical_formula_sum 'Al1 Ge3 Y2'
_chemical_name_structure_type Y2AlGe3
_exptl_crystal_density_diffrn 5.59
_publ_section_title
'Y2 Al Ge3 - eine supraleitende metallische Zintl-Verbindung'
loop_
_citation_id
_citation_journal_full
_citation_year
_citation_journal_volume
_citation_page_first
_citation_page_last
_citation_journal_id_ASTM
primary 'Zeitschrift fuer Anorganische und Allgemeine Chemie (1950) (DE)' 1996
622 589 592 ZAACAB
loop_
_publ_author_name
'Johrendt, D.'
'Mewis, A.'
'Drescher, K.'
'Wasser, S.'
'Michels, G.'
_cell_length_a 6.785(1)
_cell_length_b 4.189(1)
_cell_length_c 17.6760(20)
_cell_angle_alpha 90.
_cell_angle_beta 90.
_cell_angle_gamma 90.
_cell_volume 502.39
_cell_formula_units_Z 4
_symmetry_space_group_name_H-M 'P n m a'
_symmetry_Int_Tables_number 62
_refine_ls_R_factor_all 0.022
loop_
_symmetry_equiv_pos_site_id
_symmetry_equiv_pos_as_xyz
1 'x+1/2, y, -z+1/2'
2 'x, -y+1/2, z'
3 '-x+1/2, y+1/2, z+1/2'
4 '-x, -y, -z'
5 '-x+1/2, -y, z+1/2'
6 '-x, y+1/2, -z'
7 'x+1/2, -y+1/2, -z+1/2'
8 'x, y, z'
loop_
_atom_type_symbol
_atom_type_oxidation_number
Y0+ 0
Ge0+ 0
Al0+ 0
loop_
_atom_site_label
_atom_site_type_symbol
_atom_site_symmetry_multiplicity
_atom_site_Wyckoff_symbol
_atom_site_fract_x
_atom_site_fract_y
_atom_site_fract_z
_atom_site_B_iso_or_equiv
_atom_site_occupancy
_atom_site_attached_hydrogens
Y1 Y0+ 4 c 0.1665(1) 0.25 0.0849(1) 0.0055(2) 1. 0
Y2 Y0+ 4 c 0.6684(1) 0.25 0.2024(1) 0.0043(2) 1. 0
Ge1 Ge0+ 4 c 0.6451(1) 0.25 0.8120(1) 0.0057(2) 1. 0
Ge2 Ge0+ 4 c 0.7478(1) 0.25 0.0341(1) 0.0063(2) 1. 0
Ge3 Ge0+ 4 c 0.0338(1) 0.25 0.8260(1) 0.0094(2) 1. 0
Al1 Al0+ 4 c 0.4492(3) 0.25 0.9354(1) 0.0084(5) 1. 0
#End of TTdata_78969-ICSD