
#(C) 2017 by FIZ Karlsruhe - Leibniz Institute for Information Infrastructure.  All rights reserved.
data_78985-ICSD
_database_code_ICSD 78985
_audit_creation_date 1998-06-26
_chemical_name_systematic 'Tin iridium boride (4/7/3)'
_chemical_formula_structural 'Sn4 Ir7 B3'
_chemical_formula_sum 'B3 Ir7 Sn4'
_exptl_crystal_density_diffrn 14.75
_publ_section_title

;
Sn5 Ir6 B2 und Sn4 Ir7 B3: Zinn-Iridiumboride mit eindimensionalen
Ir/B-Verbaenden
;
loop_
_citation_id
_citation_journal_full
_citation_year
_citation_journal_volume
_citation_page_first
_citation_page_last
_citation_journal_id_ASTM
primary 'Zeitschrift fuer Anorganische und Allgemeine Chemie (1950) (DE)' 1996
622 670 674 ZAACAB
loop_
_publ_author_name
'Kluenter, W.'
'Jung, W.'
_cell_length_a 9.2663(5)
_cell_length_b 9.2663(5)
_cell_length_c 5.6319(3)
_cell_angle_alpha 90.
_cell_angle_beta 90.
_cell_angle_gamma 120.
_cell_volume 418.79
_cell_formula_units_Z 2
_symmetry_space_group_name_H-M 'P 63/m'
_symmetry_Int_Tables_number 176
_refine_ls_R_factor_all 0.045
loop_
_symmetry_equiv_pos_site_id
_symmetry_equiv_pos_as_xyz
1 '-x+y, -x, -z+1/2'
2 '-y, x-y, -z+1/2'
3 'x, y, -z+1/2'
4 'x-y, x, -z'
5 'y, -x+y, -z'
6 '-x, -y, -z'
7 'x-y, x, z+1/2'
8 'y, -x+y, z+1/2'
9 '-x, -y, z+1/2'
10 '-x+y, -x, z'
11 '-y, x-y, z'
12 'x, y, z'
loop_
_atom_type_symbol
_atom_type_oxidation_number
Sn0+ 0
Ir0+ 0
B0+ 0
loop_
_atom_site_label
_atom_site_type_symbol
_atom_site_symmetry_multiplicity
_atom_site_Wyckoff_symbol
_atom_site_fract_x
_atom_site_fract_y
_atom_site_fract_z
_atom_site_B_iso_or_equiv
_atom_site_occupancy
_atom_site_attached_hydrogens
Sn1 Sn0+ 2 d 0.6667 0.3333 0.25 . 1. 0
Sn2 Sn0+ 6 h 0.4975(5) 0.9088(5) 0.25 . 1. 0
Ir1 Ir0+ 2 b 0 0 0 . 1. 0
Ir2 Ir0+ 12 i 0.2313(1) 0.8747(1) 0.9987(6) . 1. 0
B1 B0+ 6 h 0.173(6) 0.219(7) 0.75 0.0014(80) 1. 0
loop_
_atom_site_aniso_label
_atom_site_aniso_type_symbol
_atom_site_aniso_U_11
_atom_site_aniso_U_22
_atom_site_aniso_U_33
_atom_site_aniso_U_12
_atom_site_aniso_U_13
_atom_site_aniso_U_23
Sn1 Sn0+ 0.0066(15) 0.0066(15) 0.0069(31) 0.0033(8) 0 0
Sn2 Sn0+ 0.0063(14) 0.0063(13) 0.0062(15) 0.0037(13) 0 0
Ir1 Ir0+ 0.0042(6) 0.0042(6) 0.0029(13) 0.0021(3) 0 0
Ir2 Ir0+ 0.0054(5) 0.0052(5) 0.0045(4) 0.0024(4) -.0001(10) -.0001(9)
#End of TTdata_78985-ICSD