
#(C) 2017 by FIZ Karlsruhe - Leibniz Institute for Information Infrastructure.  All rights reserved.
data_79104-ICSD
_database_code_ICSD 79104
_audit_creation_date 1996-04-22
_chemical_name_systematic 'Barium nickel phosphide (1/2/4) - beta'
_chemical_formula_structural 'Ba Ni2 P4'
_chemical_formula_sum 'Ba1 Ni2 P4'
_exptl_crystal_density_diffrn 5.08
_cell_measurement_temperature 298.
_publ_section_title 'Ba Ni2 P4: Dimorphie durch Peierls-Verzerrung?'
loop_
_citation_id
_citation_journal_full
_citation_year
_citation_journal_volume
_citation_page_first
_citation_page_last
_citation_journal_id_ASTM
primary 'Zeitschrift fuer Anorganische und Allgemeine Chemie (1950) (DE)' 1995
621 925 930 ZAACAB
loop_
_publ_author_name
'Keimes, V.'
'Johrendt, D.'
'Mewis, A.'
_cell_length_a 6.620(1)
_cell_length_b 6.470(1)
_cell_length_c 5.785(1)
_cell_angle_alpha 90.
_cell_angle_beta 90.
_cell_angle_gamma 90.
_cell_volume 247.78
_cell_formula_units_Z 2
_symmetry_space_group_name_H-M 'I m m m'
_symmetry_Int_Tables_number 71
_refine_ls_R_factor_all 0.046
loop_
_symmetry_equiv_pos_site_id
_symmetry_equiv_pos_as_xyz
1 'x, y, -z'
2 'x, -y, z'
3 '-x, y, z'
4 '-x, -y, -z'
5 '-x, -y, z'
6 '-x, y, -z'
7 'x, -y, -z'
8 'x, y, z'
9 'x+1/2, y+1/2, -z+1/2'
10 'x+1/2, -y+1/2, z+1/2'
11 '-x+1/2, y+1/2, z+1/2'
12 '-x+1/2, -y+1/2, -z+1/2'
13 '-x+1/2, -y+1/2, z+1/2'
14 '-x+1/2, y+1/2, -z+1/2'
15 'x+1/2, -y+1/2, -z+1/2'
16 'x+1/2, y+1/2, z+1/2'
loop_
_atom_type_symbol
_atom_type_oxidation_number
Ba2+ 2
Ni2+ 2
P1- -1.5
loop_
_atom_site_label
_atom_site_type_symbol
_atom_site_symmetry_multiplicity
_atom_site_Wyckoff_symbol
_atom_site_fract_x
_atom_site_fract_y
_atom_site_fract_z
_atom_site_B_iso_or_equiv
_atom_site_occupancy
_atom_site_attached_hydrogens
Ba1 Ba2+ 2 a 0 0 0 0.0142(5) 1. 0
Ni1 Ni2+ 4 j 0.5 0 0.2608(3) 0.0089(7) 1. 0
P1 P1- 4 f 0.2619(4) 0.5 0 0.0078(11) 1. 0
P2 P1- 4 h 0 0.2441(5) 0.5 0.0079(11) 1. 0
#End of TTdata_79104-ICSD