
data_79362-ICSD
_database_code_ICSD 79362
_audit_creation_date 1996-10-14
_chemical_name_systematic 'Bismuth telluride chloride'
_chemical_formula_structural 'Bi Te Cl'
_chemical_formula_sum 'Bi1 Cl1 Te1'
_chemical_name_structure_type CdI2(hP6)
_exptl_crystal_density_diffrn 6.39
_cell_length_a 4.2426(1)
_cell_length_b 4.2426(1)
_cell_length_c 12.397(1)
_cell_angle_alpha 90.
_cell_angle_beta 90.
_cell_angle_gamma 120.
_cell_volume 193.25
_cell_formula_units_Z 2
_symmetry_space_group_name_H-M 'P 63 m c'
_symmetry_Int_Tables_number 186
_refine_ls_R_factor_all 0.065
loop_
_symmetry_equiv_pos_site_id
_symmetry_equiv_pos_as_xyz
1 '-x, -x+y, z+1/2'
2 'x-y, -y, z+1/2'
3 'y, x, z+1/2'
4 'x-y, x, z+1/2'
5 'y, -x+y, z+1/2'
6 '-x, -y, z+1/2'
7 'x, x-y, z'
8 '-x+y, y, z'
9 '-y, -x, z'
10 '-x+y, -x, z'
11 '-y, x-y, z'
12 'x, y, z'
loop_
_atom_type_symbol
_atom_type_oxidation_number
Bi3+ 3
Te2- -2
Cl1- -1
loop_
_atom_site_label
_atom_site_type_symbol
_atom_site_symmetry_multiplicity
_atom_site_Wyckoff_symbol
_atom_site_fract_x
_atom_site_fract_y
_atom_site_fract_z
_atom_site_B_iso_or_equiv
_atom_site_occupancy
_atom_site_attached_hydrogens
Bi1 Bi3+ 2 b 0.6667 0.3333 0.6394(1) 1.67(2) 1. 0
Te1 Te2- 2 b 0.6667 0.3333 0.2811(1) 1.87(4) 1. 0
Cl1 Cl1- 2 a 0 0 0.4976(5) 1.44(8) 1. 0
