
#(C) 2017 by FIZ Karlsruhe - Leibniz Institute for Information Infrastructure.  All rights reserved.
data_79507-ICSD
_database_code_ICSD 79507
_audit_creation_date 1996-10-14
_chemical_name_systematic 'Barium phyllo-bis(phosphato)molybdate'
_chemical_formula_structural 'Ba Mo (P O4)2'
_chemical_formula_sum 'Ba1 Mo1 O8 P2'
_chemical_name_structure_type NaV(SO4)2
_exptl_crystal_density_diffrn 4.17
_cell_measurement_temperature 294.
_publ_section_title
'A Mo(IV) monophosphate, Ba Mo (P O4)2, with the yavapaiite layer structure'
loop_
_citation_id
_citation_journal_full
_citation_year
_citation_journal_volume
_citation_page_first
_citation_page_last
_citation_journal_id_ASTM
primary 'Journal of Solid State Chemistry' 1995 116 364 368 JSSCBI
loop_
_publ_author_name
'Leclaire, A.'
'Borel, M.M.'
'Chardon, J.'
'Raveau, B.'
_cell_length_a 8.211(1)
_cell_length_b 5.2757(6)
_cell_length_c 7.816(2)
_cell_angle_alpha 90.
_cell_angle_beta 94.778(1)
_cell_angle_gamma 90.
_cell_volume 337.4
_cell_formula_units_Z 2
_symmetry_space_group_name_H-M 'C 1 2/m 1'
_symmetry_Int_Tables_number 12
_refine_ls_R_factor_all 0.03
loop_
_symmetry_equiv_pos_site_id
_symmetry_equiv_pos_as_xyz
1 '-x, y, -z'
2 '-x, -y, -z'
3 'x, -y, z'
4 'x, y, z'
5 '-x+1/2, y+1/2, -z'
6 '-x+1/2, -y+1/2, -z'
7 'x+1/2, -y+1/2, z'
8 'x+1/2, y+1/2, z'
loop_
_atom_type_symbol
_atom_type_oxidation_number
Ba2+ 2
Mo4+ 4
P5+ 5
O2- -2
loop_
_atom_site_label
_atom_site_type_symbol
_atom_site_symmetry_multiplicity
_atom_site_Wyckoff_symbol
_atom_site_fract_x
_atom_site_fract_y
_atom_site_fract_z
_atom_site_B_iso_or_equiv
_atom_site_occupancy
_atom_site_attached_hydrogens
Ba1 Ba2+ 2 a 0 0 0 1.309(6) 1. 0
Mo1 Mo4+ 2 c 0 0 0.5 0.856(8) 1. 0
P1 P5+ 4 i 0.1294(2) 0.5 0.2899(2) 0.88(2) 1. 0
O1 O2- 8 j 0.0242(4) 0.2610(6) 0.3123(4) 1.29(4) 1. 0
O2 O2- 4 i 0.2652(5) 0.5 0.4392(6) 1.21(6) 1. 0
O3 O2- 4 i 0.1862(6) 0.5 0.1122(6) 1.65(7) 1. 0
#End of TTdata_79507-ICSD