
#(C) 2017 by FIZ Karlsruhe - Leibniz Institute for Information Infrastructure.  All rights reserved.
data_79515-ICSD
_database_code_ICSD 79515
_audit_creation_date 1996-10-14
_chemical_name_systematic 'Bismuth sulfide'
_chemical_formula_structural 'Bi S'
_chemical_formula_sum 'Bi1 S1'
_exptl_crystal_density_diffrn 4.02
_publ_section_title

;
The layered composite crystal structure of the ternary sulfide (Bi S)1.11 Nb
S2
;
loop_
_citation_id
_citation_journal_full
_citation_year
_citation_journal_volume
_citation_page_first
_citation_page_last
_citation_journal_id_ASTM
primary 'Journal of Solid State Chemistry' 1995 116 61 67 JSSCBI
loop_
_publ_author_name
'Gotoh, Y.'
'Akimoto, J.'
'Goto, M.'
'Oosawa, Y.'
'Onoda, M.'
_cell_length_a 5.752(4)
_cell_length_b 36.1560(50)
_cell_length_c 23.0010(50)
_cell_angle_alpha 90.
_cell_angle_beta 90.
_cell_angle_gamma 90.
_cell_volume 4783.5
_cell_formula_units_Z 48
_symmetry_space_group_name_H-M 'F 2 m m'
_symmetry_Int_Tables_number 42
_refine_ls_R_factor_all 0.083
loop_
_symmetry_equiv_pos_site_id
_symmetry_equiv_pos_as_xyz
1 'x, -y, z'
2 'x, y, -z'
3 'x, -y, -z'
4 'x, y, z'
5 'x, -y+1/2, z+1/2'
6 'x, y+1/2, -z+1/2'
7 'x, -y+1/2, -z+1/2'
8 'x, y+1/2, z+1/2'
9 'x+1/2, -y, z+1/2'
10 'x+1/2, y, -z+1/2'
11 'x+1/2, -y, -z+1/2'
12 'x+1/2, y, z+1/2'
13 'x+1/2, -y+1/2, z'
14 'x+1/2, y+1/2, -z'
15 'x+1/2, -y+1/2, -z'
16 'x+1/2, y+1/2, z'
loop_
_atom_type_symbol
_atom_type_oxidation_number
Bi2+ 2
S2- -2
loop_
_atom_site_label
_atom_site_type_symbol
_atom_site_symmetry_multiplicity
_atom_site_Wyckoff_symbol
_atom_site_fract_x
_atom_site_fract_y
_atom_site_fract_z
_atom_site_B_iso_or_equiv
_atom_site_occupancy
_atom_site_attached_hydrogens
Bi1 Bi2+ 16 e 0 0.0432(1) 0.3188(2) 1.3(1) 1. 0
Bi2 Bi2+ 16 e -.0012(11) 0.1243(1) 0.1799(2) 1.9(1) 1. 0
Bi3 Bi2+ 16 e 0.0226(8) 0.2087(1) 0.3173(1) 1.7(1) 1. 0
S1 S2- 16 e 0.022(6) 0.0490(5) 0.1965(10) 1.5(5) 1. 0
S2 S2- 16 e 0.028(6) 0.1337(6) 0.2962(10) 1.5(5) 1. 0
S3 S2- 16 e 0.031(5) 0.2104(7) 0.2022(8) 1.7(4) 1. 0
#End of TTdata_79515-ICSD