
#(C) 2017 by FIZ Karlsruhe - Leibniz Institute for Information Infrastructure.  All rights reserved.
data_79979-ICSD
_database_code_ICSD 79979
_audit_creation_date 1996-10-14
_chemical_name_systematic 'Lanthanum nickel antimonide (1/1/1)'
_chemical_formula_structural 'La Ni Sb'
_chemical_formula_sum 'La1 Ni1 Sb1'
_chemical_name_structure_type ZrBeSi
_exptl_crystal_density_diffrn 7.51
_publ_section_title

;
Crystal structures and magnetic properties of the lanthanoid nickel
antimonides Ln Ni Sb (Ln=La-Nd, Sm, Gd-Tm, Lu)
;
loop_
_citation_id
_citation_journal_full
_citation_year
_citation_journal_volume
_citation_page_first
_citation_page_last
_citation_journal_id_ASTM
primary 'Journal of Alloys and Compounds' 1995 226 81 86 JALCEU
loop_
_publ_author_name
'Hartjes, K.'
'Jeitschko, W.'
_cell_length_a 4.4060(3)
_cell_length_b 4.4060(3)
_cell_length_c 8.3964(5)
_cell_angle_alpha 90.
_cell_angle_beta 90.
_cell_angle_gamma 120.
_cell_volume 141.16
_cell_formula_units_Z 2
_symmetry_space_group_name_H-M 'P 63/m m c'
_symmetry_Int_Tables_number 194
_refine_ls_R_factor_all 0.011
loop_
_symmetry_equiv_pos_site_id
_symmetry_equiv_pos_as_xyz
1 'x, x-y, -z+1/2'
2 '-x+y, y, -z+1/2'
3 '-y, -x, -z+1/2'
4 '-x+y, -x, -z+1/2'
5 '-y, x-y, -z+1/2'
6 'x, y, -z+1/2'
7 '-x, -x+y, z+1/2'
8 'x-y, -y, z+1/2'
9 'y, x, z+1/2'
10 'x-y, x, z+1/2'
11 'y, -x+y, z+1/2'
12 '-x, -y, z+1/2'
13 '-x, -x+y, -z'
14 'x-y, -y, -z'
15 'y, x, -z'
16 'x-y, x, -z'
17 'y, -x+y, -z'
18 '-x, -y, -z'
19 'x, x-y, z'
20 '-x+y, y, z'
21 '-y, -x, z'
22 '-x+y, -x, z'
23 '-y, x-y, z'
24 'x, y, z'
loop_
_atom_type_symbol
_atom_type_oxidation_number
La0+ 0
Ni0+ 0
Sb0+ 0
loop_
_atom_site_label
_atom_site_type_symbol
_atom_site_symmetry_multiplicity
_atom_site_Wyckoff_symbol
_atom_site_fract_x
_atom_site_fract_y
_atom_site_fract_z
_atom_site_B_iso_or_equiv
_atom_site_occupancy
_atom_site_attached_hydrogens
La1 La0+ 2 a 0 0 0 0.3(2) 1. 0
Ni1 Ni0+ 2 c 0.3333 0.6667 0.25 0.5(2) 1. 0
Sb1 Sb0+ 2 d 0.3333 0.6667 0.75 1.4(6) 1. 0
#End of TTdata_79979-ICSD