
data_80029-ICSD
_database_code_ICSD 80029
_audit_creation_date 1996-10-14
_chemical_name_systematic 'Manganese dinitridotungstate(IV)'
_chemical_formula_structural 'Mn (W N2)'
_chemical_formula_sum 'Mn1 N2 W1'
_exptl_crystal_density_diffrn 10.94
_cell_length_a 2.9213(3)
_cell_length_b 2.9213(3)
_cell_length_c 10.957(2)
_cell_angle_alpha 90.
_cell_angle_beta 90.
_cell_angle_gamma 120.
_cell_volume 80.98
_cell_formula_units_Z 2
_symmetry_space_group_name_H-M 'P 63 m c'
_symmetry_Int_Tables_number 186
_refine_ls_R_factor_all 0.12
loop_
_symmetry_equiv_pos_site_id
_symmetry_equiv_pos_as_xyz
1 '-x, -x+y, z+1/2'
2 'x-y, -y, z+1/2'
3 'y, x, z+1/2'
4 'x-y, x, z+1/2'
5 'y, -x+y, z+1/2'
6 '-x, -y, z+1/2'
7 'x, x-y, z'
8 '-x+y, y, z'
9 '-y, -x, z'
10 '-x+y, -x, z'
11 '-y, x-y, z'
12 'x, y, z'
loop_
_atom_type_symbol
_atom_type_oxidation_number
Mn2+ 2
N3- -3
W4+ 4
N3- -3
loop_
_atom_site_label
_atom_site_type_symbol
_atom_site_symmetry_multiplicity
_atom_site_Wyckoff_symbol
_atom_site_fract_x
_atom_site_fract_y
_atom_site_fract_z
_atom_site_B_iso_or_equiv
_atom_site_occupancy
_atom_site_attached_hydrogens
Mn1 Mn2+ 2 a 0 0 0 . 1. 0
N1 N3- 2 a 0 0 0.2 . 1. 0
W1 W4+ 2 b 0.3333 0.6667 0.8 . 1. 0
N2 N3- 2 b 0.3333 0.6667 0.4 . 1. 0
