
data_80129-ICSD
_database_code_ICSD 80129
_audit_creation_date 1996-10-14
_audit_update_record 2003-10-01
_chemical_name_systematic 'Lead digallate'
_chemical_formula_structural 'Pb (Ga2 O4)'
_chemical_formula_sum 'Ga2 O4 Pb1'
_chemical_name_structure_type PbAl2O4
_exptl_crystal_density_diffrn 6.47
_cell_length_a 8.575
_cell_length_b 9.424
_cell_length_c 5.22
_cell_angle_alpha 90.
_cell_angle_beta 90.
_cell_angle_gamma 90.
_cell_volume 421.83
_cell_formula_units_Z 4
_symmetry_space_group_name_H-M 'A m a 2'
_symmetry_Int_Tables_number 40
loop_
_symmetry_equiv_pos_site_id
_symmetry_equiv_pos_as_xyz
1 'x+1/2, -y, z'
2 '-x+1/2, y, z'
3 '-x, -y, z'
4 'x, y, z'
5 'x+1/2, -y+1/2, z+1/2'
6 '-x+1/2, y+1/2, z+1/2'
7 '-x, -y+1/2, z+1/2'
8 'x, y+1/2, z+1/2'
loop_
_atom_type_symbol
_atom_type_oxidation_number
Pb2+ 2
Ga3+ 3
O2- -2
loop_
_atom_site_label
_atom_site_type_symbol
_atom_site_symmetry_multiplicity
_atom_site_Wyckoff_symbol
_atom_site_fract_x
_atom_site_fract_y
_atom_site_fract_z
_atom_site_B_iso_or_equiv
_atom_site_occupancy
_atom_site_attached_hydrogens
Pb1 Pb2+ 4 b 0.25 0.0282 -.0021(1) 0.0139 1. 0
Ga1 Ga3+ 8 c 0.0524(6) 0.6726(2) -.0403(1) 0.0121 1. 0
O1 O2- 8 c 0.0595(12) 0.1826(9) 0.8136(13) 0.0166 1. 0
O2 O2- 4 a 0.0000(22) 0.5000(8) 0.8257(6) 0.0188 1. 0
O3 O2- 4 b 0.2500(14) 0.6906(10) 0.8215(5) 0.0185 1. 0
