
#(C) 2017 by FIZ Karlsruhe - Leibniz Institute for Information Infrastructure.  All rights reserved.
data_8016-ICSD
_database_code_ICSD 8016
_audit_creation_date 1980-01-01
_audit_update_record 1984-07-05
_chemical_name_systematic 'Yttrium platinum (3:1)'
_chemical_formula_structural 'Y3 Pt'
_chemical_formula_sum 'Pt1 Y3'
_chemical_name_structure_type Cementite-Fe3C
_exptl_crystal_density_diffrn 6.98
_publ_section_title

;
Rare-earth (and Yttrium)-Iridium and platinum compounds with the Fe C
structure type
;
loop_
_citation_id
_citation_journal_full
_citation_year
_citation_journal_volume
_citation_page_first
_citation_page_last
_citation_journal_id_ASTM
primary 'Acta Crystallographica B (24,1968-38,1982)' 1979 35 1437 1439 ACBCAR
loop_
_publ_author_name
'le Roy, J.'
'Moreau, J.M.'
'Paccard, D.'
'Parthe, E.'
_cell_length_a 7.101(4)
_cell_length_b 9.584(7)
_cell_length_c 6.454(6)
_cell_angle_alpha 90.
_cell_angle_beta 90.
_cell_angle_gamma 90.
_cell_volume 439.23
_cell_formula_units_Z 4
_symmetry_space_group_name_H-M 'P n m a'
_symmetry_Int_Tables_number 62
_refine_ls_R_factor_all 0.083
loop_
_symmetry_equiv_pos_site_id
_symmetry_equiv_pos_as_xyz
1 'x+1/2, y, -z+1/2'
2 'x, -y+1/2, z'
3 '-x+1/2, y+1/2, z+1/2'
4 '-x, -y, -z'
5 '-x+1/2, -y, z+1/2'
6 '-x, y+1/2, -z'
7 'x+1/2, -y+1/2, -z+1/2'
8 'x, y, z'
loop_
_atom_type_symbol
_atom_type_oxidation_number
Y0+ 0
Pt0+ 0
loop_
_atom_site_label
_atom_site_type_symbol
_atom_site_symmetry_multiplicity
_atom_site_Wyckoff_symbol
_atom_site_fract_x
_atom_site_fract_y
_atom_site_fract_z
_atom_site_B_iso_or_equiv
_atom_site_occupancy
_atom_site_attached_hydrogens
Y1 Y0+ 4 c 0.0299(7) 0.25 0.1312(7) 0.0136(9) 1. 0
Y2 Y0+ 8 d 0.1796(5) 0.0619(3) 0.6785(5) 0.0141(7) 1. 0
Pt1 Pt0+ 4 c 0.3904(3) 0.25 0.9522(3) 0.0176(6) 1. 0
#End of TTdata_8016-ICSD