
#(C) 2017 by FIZ Karlsruhe - Leibniz Institute for Information Infrastructure.  All rights reserved.
data_80336-ICSD
_database_code_ICSD 80336
_audit_creation_date 1997-05-13
_audit_update_record 2004-04-01
_chemical_name_systematic 'Potassium iridium dioxide (0.25/1/2)'
_chemical_formula_structural 'K0.25 Ir O2'
_chemical_formula_sum 'Ir1 K0.25 O2'
_chemical_name_structure_type Ba2Mn8O16
_chemical_name_mineral Hollandite-(Ir)
_exptl_crystal_density_diffrn 9.83
_publ_section_title 'Structural study of a hollandite-type Kx Ir O2'
loop_
_citation_id
_citation_journal_full
_citation_year
_citation_journal_volume
_citation_page_first
_citation_page_last
_citation_journal_id_ASTM
primary 'Journal of Solid State Chemistry' 1995 118 372 377 JSSCBI
loop_
_publ_author_name
'Bestaoui, N.'
'Deniard, P.'
'Brec, R.'
_cell_length_a 10.0206(4)
_cell_length_b 3.15268(9)
_cell_length_c 10.0535(4)
_cell_angle_alpha 90.
_cell_angle_beta 90.113(3)
_cell_angle_gamma 90.
_cell_volume 317.61
_cell_formula_units_Z 8
_symmetry_space_group_name_H-M 'I 1 2/m 1'
_symmetry_Int_Tables_number 12
_refine_ls_R_factor_all 0.17
loop_
_symmetry_equiv_pos_site_id
_symmetry_equiv_pos_as_xyz
1 'x, -y, z'
2 '-x, -y, -z'
3 '-x, y, -z'
4 'x, y, z'
5 'x+1/2, -y+1/2, z+1/2'
6 '-x+1/2, -y+1/2, -z+1/2'
7 '-x+1/2, y+1/2, -z+1/2'
8 'x+1/2, y+1/2, z+1/2'
loop_
_atom_type_symbol
_atom_type_oxidation_number
Ir3+ 3.75
O2- -2
K1+ 1
loop_
_atom_site_label
_atom_site_type_symbol
_atom_site_symmetry_multiplicity
_atom_site_Wyckoff_symbol
_atom_site_fract_x
_atom_site_fract_y
_atom_site_fract_z
_atom_site_B_iso_or_equiv
_atom_site_occupancy
_atom_site_attached_hydrogens
Ir1 Ir3+ 4 i 0.3514(5) 0 0.1726(4) . 1. 0
Ir2 Ir3+ 4 i 0.8311(5) 0 0.3621(4) . 1. 0
O1 O2- 4 i 0.141(3) 0 0.193(5) 0.01 1. 0
O2 O2- 4 i 0.782(3) 0 0.151(3) 0.01 1. 0
O3 O2- 4 i 0.549(3) 0 0.188(4) 0.01 1. 0
O4 O2- 4 i 0.857(4) 0 0.539(3) 0.01 1. 0
K1 K1+ 2 a 0 0 0 0.002(5) 1. 0
loop_
_atom_site_aniso_label
_atom_site_aniso_type_symbol
_atom_site_aniso_U_11
_atom_site_aniso_U_22
_atom_site_aniso_U_33
_atom_site_aniso_U_12
_atom_site_aniso_U_13
_atom_site_aniso_U_23
Ir1 Ir3+ 0.038(2) 0.019(1) 0.033(2) 0 -.007(2) 0
Ir2 Ir3+ 0.038(2) 0.019(1) 0.033(2) 0 -.007(2) 0
#End of TTdata_80336-ICSD