
data_80667-ICSD
_database_code_ICSD 80667
_audit_creation_date 1997-05-13
_chemical_name_systematic 'Trithallium vanadate - beta'
_chemical_formula_structural 'Tl3 (V O4)'
_chemical_formula_sum 'O4 Tl3 V1'
_exptl_crystal_density_diffrn 7.83
_cell_length_a 8.2979(1)
_cell_length_b 6.3302(1)
_cell_length_c 5.8823(1)
_cell_angle_alpha 90.
_cell_angle_beta 90.
_cell_angle_gamma 90.
_cell_volume 308.98
_cell_formula_units_Z 2
_symmetry_space_group_name_H-M 'I m 2 m'
_symmetry_Int_Tables_number 44
_refine_ls_R_factor_all 0.046
loop_
_symmetry_equiv_pos_site_id
_symmetry_equiv_pos_as_xyz
1 'x, y, -z'
2 '-x, y, z'
3 '-x, y, -z'
4 'x, y, z'
5 'x+1/2, y+1/2, -z+1/2'
6 '-x+1/2, y+1/2, z+1/2'
7 '-x+1/2, y+1/2, -z+1/2'
8 'x+1/2, y+1/2, z+1/2'
loop_
_atom_type_symbol
_atom_type_oxidation_number
Tl1+ 1
V5+ 5
O2- -2
loop_
_atom_site_label
_atom_site_type_symbol
_atom_site_symmetry_multiplicity
_atom_site_Wyckoff_symbol
_atom_site_fract_x
_atom_site_fract_y
_atom_site_fract_z
_atom_site_B_iso_or_equiv
_atom_site_occupancy
_atom_site_attached_hydrogens
Tl1 Tl1+ 4 d 0.2360(1) 0.5354(9) 0 . 1. 0
Tl2 Tl1+ 2 a 0 0.0340(12) 0 . 1. 0
V1 V5+ 2 b 0 0.5 0.5 1.04(13) 1. 0
O1 O2- 4 c 0 0.3603(17) 0.2574(14) 2.28(20) 1. 0
O2 O2- 4 d 0.1632(10) 0.6628(14) 0.5 2.28(20) 1. 0
loop_
_atom_site_aniso_label
_atom_site_aniso_type_symbol
_atom_site_aniso_U_11
_atom_site_aniso_U_22
_atom_site_aniso_U_33
_atom_site_aniso_U_12
_atom_site_aniso_U_13
_atom_site_aniso_U_23
Tl1 Tl1+ 0.0160(7) 0.0294(6) 0.0117(5) 0 0 0
Tl2 Tl1+ 0.0310(9) 0.0091(8) 0.0203(9) 0 0 0
