
#(C) 2017 by FIZ Karlsruhe - Leibniz Institute for Information Infrastructure.  All rights reserved.
data_80668-ICSD
_database_code_ICSD 80668
_audit_creation_date 1997-05-13
_audit_update_record 2007-08-01
_chemical_name_systematic 'Strontium dibismuth oxide'
_chemical_formula_structural 'Sr Bi2 O4'
_chemical_formula_sum 'Bi2 O4 Sr1'
_exptl_crystal_density_diffrn 7.39
_publ_section_title 'Structure determination of Sr Bi2 O4'
loop_
_citation_id
_citation_journal_full
_citation_year
_citation_journal_volume
_citation_page_first
_citation_page_last
_citation_journal_id_ASTM
primary 'Materials Research Bulletin' 1991 26 989 993 MRBUAC
loop_
_publ_author_name
'Haemers, T.A.M.'
'Ijdo, D.J.W.'
_cell_length_a 19.3000(10)
_cell_length_b 4.358(1)
_cell_length_c 6.1057(5)
_cell_angle_alpha 90.
_cell_angle_beta 94.801(4)
_cell_angle_gamma 90.
_cell_volume 511.74
_cell_formula_units_Z 4
_symmetry_space_group_name_H-M 'C 1 2/m 1'
_symmetry_Int_Tables_number 12
_refine_ls_R_factor_all 0.133
loop_
_symmetry_equiv_pos_site_id
_symmetry_equiv_pos_as_xyz
1 '-x, y, -z'
2 '-x, -y, -z'
3 'x, -y, z'
4 'x, y, z'
5 '-x+1/2, y+1/2, -z'
6 '-x+1/2, -y+1/2, -z'
7 'x+1/2, -y+1/2, z'
8 'x+1/2, y+1/2, z'
loop_
_atom_type_symbol
_atom_type_oxidation_number
Bi3+ 3
Sr2+ 2
O2- -2
loop_
_atom_site_label
_atom_site_type_symbol
_atom_site_symmetry_multiplicity
_atom_site_Wyckoff_symbol
_atom_site_fract_x
_atom_site_fract_y
_atom_site_fract_z
_atom_site_B_iso_or_equiv
_atom_site_occupancy
_atom_site_attached_hydrogens
Bi1 Bi3+ 4 i 0.0975(2) 0 0.8237(8) 0.8 1. 0
Bi2 Bi3+ 4 i 0.4215(2) 0 0.7212(8) 0.8 1. 0
Sr1 Sr2+ 4 i 0.2392(5) 0 0.253(2) 0.8 1. 0
O1 O2- 4 i 0.399(3) 0 0.07(1) 0.8 1. 0
O2 O2- 4 i 0.307(3) 0 0.61(1) 0.8 1. 0
O3 O2- 4 i 0.222(3) 0 0.87(1) 0.8 1. 0
O4 O2- 4 i 0.099(3) 0 0.22(1) 0.8 1. 0
#End of TTdata_80668-ICSD