
#(C) 2017 by FIZ Karlsruhe - Leibniz Institute for Information Infrastructure.  All rights reserved.
data_8078-ICSD
_database_code_ICSD 8078
_audit_creation_date 1980-01-01
_audit_update_record 1984-07-05
_chemical_name_systematic 'Lanthanum ruthenium boride (1/4/4)'
_chemical_formula_structural 'La Ru4 B4'
_chemical_formula_sum 'B4 La1 Ru4'
_chemical_name_structure_type Co4NdB4
_exptl_crystal_density_diffrn 8.54
_publ_section_title 'Lanthanum ruthenium boride, La Ru4 B4'
loop_
_citation_id
_citation_journal_full
_citation_year
_citation_journal_volume
_citation_page_first
_citation_page_last
_citation_journal_id_ASTM
primary 'Acta Crystallographica B (24,1968-38,1982)' 1979 35 451 453 ACBCAR
loop_
_publ_author_name
'Gruettner, A.'
'Yvon, K.'
_cell_length_a 7.541(3)
_cell_length_b 7.541(3)
_cell_length_c 4.012(1)
_cell_angle_alpha 90.
_cell_angle_beta 90.
_cell_angle_gamma 90.
_cell_volume 228.15
_cell_formula_units_Z 2
_symmetry_space_group_name_H-M 'P 42/n Z'
_symmetry_Int_Tables_number 86
_refine_ls_R_factor_all 0.05
loop_
_symmetry_equiv_pos_site_id
_symmetry_equiv_pos_as_xyz
1 '-y+1/2, x, -z+1/2'
2 'y, -x+1/2, -z+1/2'
3 'x+1/2, y+1/2, -z'
4 '-x, -y, -z'
5 'y+1/2, -x, z+1/2'
6 '-y, x+1/2, z+1/2'
7 '-x+1/2, -y+1/2, z'
8 'x, y, z'
loop_
_atom_type_symbol
_atom_type_oxidation_number
La0+ 0
Ru0+ 0
B0+ 0
loop_
_atom_site_label
_atom_site_type_symbol
_atom_site_symmetry_multiplicity
_atom_site_Wyckoff_symbol
_atom_site_fract_x
_atom_site_fract_y
_atom_site_fract_z
_atom_site_B_iso_or_equiv
_atom_site_occupancy
_atom_site_attached_hydrogens
La1 La0+ 2 b 0.25 0.25 0.75 . 1. 0
Ru1 Ru0+ 8 g 0.6074(1) 0.1413(1) 0.1410(3) . 1. 0
B1 B0+ 8 g 0.543(2) 0.417(2) 0.144(4) 0.006(3) 1. 0
loop_
_atom_site_aniso_label
_atom_site_aniso_type_symbol
_atom_site_aniso_U_11
_atom_site_aniso_U_22
_atom_site_aniso_U_33
_atom_site_aniso_U_12
_atom_site_aniso_U_13
_atom_site_aniso_U_23
La1 La0+ 0.0045 0.0045 0.0075 0 0 0
Ru1 Ru0+ 0.0035 0.0023 0.0004 0.0005 0.0001 0.0001
#End of TTdata_8078-ICSD