
#(C) 2017 by FIZ Karlsruhe - Leibniz Institute for Information Infrastructure.  All rights reserved.
data_81011-ICSD
_database_code_ICSD 81011
_audit_creation_date 1997-05-13
_audit_update_record 2006-04-01
_chemical_name_systematic 'Sodium carbonate - alpha, HT'
_chemical_formula_structural 'Na2 (C O3)'
_chemical_formula_sum 'C1 Na2 O3'
_chemical_name_structure_type K2CO3
_exptl_crystal_density_diffrn 2.29
_cell_measurement_temperature 828.
_publ_section_title

;
Neutron powder diffraction study of the ferroelastic phase transition and
lattice melting in sodium carbonate, Na2 C O3
;
loop_
_citation_id
_citation_journal_full
_citation_year
_citation_journal_volume
_citation_page_first
_citation_page_last
_citation_journal_id_ASTM
primary 'Journal of Physics: Condensed Matter' 1995 7 4395 4417 JCOMEL
loop_
_publ_author_name
'Swainson, I.P.'
'Dove, M.T.'
'Harris, M.J.'
_cell_length_a 5.20994
_cell_length_b 5.20994
_cell_length_c 6.5325
_cell_angle_alpha 90.
_cell_angle_beta 90.
_cell_angle_gamma 120.
_cell_volume 153.56
_cell_formula_units_Z 2
_symmetry_space_group_name_H-M 'P 63/m m c'
_symmetry_Int_Tables_number 194
loop_
_symmetry_equiv_pos_site_id
_symmetry_equiv_pos_as_xyz
1 'x, x-y, -z+1/2'
2 '-x+y, y, -z+1/2'
3 '-y, -x, -z+1/2'
4 '-x+y, -x, -z+1/2'
5 '-y, x-y, -z+1/2'
6 'x, y, -z+1/2'
7 '-x, -x+y, z+1/2'
8 'x-y, -y, z+1/2'
9 'y, x, z+1/2'
10 'x-y, x, z+1/2'
11 'y, -x+y, z+1/2'
12 '-x, -y, z+1/2'
13 '-x, -x+y, -z'
14 'x-y, -y, -z'
15 'y, x, -z'
16 'x-y, x, -z'
17 'y, -x+y, -z'
18 '-x, -y, -z'
19 'x, x-y, z'
20 '-x+y, y, z'
21 '-y, -x, z'
22 '-x+y, -x, z'
23 '-y, x-y, z'
24 'x, y, z'
loop_
_atom_type_symbol
_atom_type_oxidation_number
Na1+ 1
C4+ 4
O2- -2
loop_
_atom_site_label
_atom_site_type_symbol
_atom_site_symmetry_multiplicity
_atom_site_Wyckoff_symbol
_atom_site_fract_x
_atom_site_fract_y
_atom_site_fract_z
_atom_site_B_iso_or_equiv
_atom_site_occupancy
_atom_site_attached_hydrogens
Na1 Na1+ 2 a 0 0 0 . 1. 0
Na2 Na1+ 2 c 0.6667 0.3333 0.75 . 1. 0
C1 C4+ 2 d 0.6667 0.3333 0.25 . 1. 0
O1 O2- 6 h 0.7982 0.2018 0.25 . 1. 0
#End of TTdata_81011-ICSD