
#(C) 2017 by FIZ Karlsruhe - Leibniz Institute for Information Infrastructure.  All rights reserved.
data_81056-ICSD
_database_code_ICSD 81056
_audit_creation_date 1997-05-13
_chemical_name_systematic 'Calcium vanadium(IV) oxide'
_chemical_formula_structural 'Ca V O3'
_chemical_formula_sum 'Ca1 O3 V1'
_chemical_name_structure_type Perovskite-GdFeO3
_exptl_crystal_density_diffrn 4.31
_publ_section_title

;
Synthesis, crystal structure and transport properties of a new
non-stoichiometric Ca V O3+d phase
;
loop_
_citation_id
_citation_journal_full
_citation_year
_citation_journal_volume
_citation_page_first
_citation_page_last
_citation_journal_id_ASTM
primary 'Journal of Materials Chemistry' 1995 5 1995 1999 JMACEP
loop_
_publ_author_name
'Garcia-Jaca, J.'
'Larramendi, J.I.R.'
'Insausti, M.'
'Arriortua, M.I.'
'Rojo, T.'
_cell_length_a 5.3171(5)
_cell_length_b 7.5418(8)
_cell_length_c 5.3396(5)
_cell_angle_alpha 90.
_cell_angle_beta 90.
_cell_angle_gamma 90.
_cell_volume 214.12
_cell_formula_units_Z 4
_symmetry_space_group_name_H-M 'P n m a'
_symmetry_Int_Tables_number 62
_refine_ls_R_factor_all 0.054
loop_
_symmetry_equiv_pos_site_id
_symmetry_equiv_pos_as_xyz
1 'x+1/2, y, -z+1/2'
2 'x, -y+1/2, z'
3 '-x+1/2, y+1/2, z+1/2'
4 '-x, -y, -z'
5 '-x+1/2, -y, z+1/2'
6 '-x, y+1/2, -z'
7 'x+1/2, -y+1/2, -z+1/2'
8 'x, y, z'
loop_
_atom_type_symbol
_atom_type_oxidation_number
Ca2+ 2
V4+ 4
O2- -2
loop_
_atom_site_label
_atom_site_type_symbol
_atom_site_symmetry_multiplicity
_atom_site_Wyckoff_symbol
_atom_site_fract_x
_atom_site_fract_y
_atom_site_fract_z
_atom_site_B_iso_or_equiv
_atom_site_occupancy
_atom_site_attached_hydrogens
Ca1 Ca2+ 4 c 0.003(2) 0.25 -.019(2) 0.48(4) 1. 0
V1 V4+ 4 b 0.5 0 0 0.48(4) 1. 0
O1 O2- 4 c 0.554(5) 0.25 0.033(5) 0.48(4) 1. 0
O2 O2- 8 d 0.208(4) -.016(4) 0.209(4) 0.48(4) 1. 0
#End of TTdata_81056-ICSD