
#(C) 2017 by FIZ Karlsruhe - Leibniz Institute for Information Infrastructure.  All rights reserved.
data_81878-ICSD
_database_code_ICSD 81878
_audit_creation_date 1999-11-30
_chemical_name_systematic 'Dibarium indium trioxide bromide'
_chemical_formula_structural 'Ba2 In O3 Br'
_chemical_formula_sum 'Ba2 Br1 In1 O3'
_chemical_name_structure_type (La,K)2CuO4
_exptl_crystal_density_diffrn 6.18
_cell_measurement_temperature 298.
_publ_section_title

;
Synthesis and structure of Ba2 In O3 X (X = F, Cl, Br) and Ba2 Sc O3 F;
oxide/halide ordering in K2 Ni F4 - type structures
;
loop_
_citation_id
_citation_journal_full
_citation_year
_citation_journal_volume
_citation_page_first
_citation_page_last
_citation_journal_id_ASTM
primary 'Journal of Materials Chemistry' 1996 6 1219 1224 JMACEP
loop_
_publ_author_name
'Needs, R.L.'
'Weller, M.T.'
'Scheler, U.'
'Harris, R.K.'
_cell_length_a 4.2365(3)
_cell_length_b 4.2365(3)
_cell_length_c 15.4805(1)
_cell_angle_alpha 90.
_cell_angle_beta 90.
_cell_angle_gamma 90.
_cell_volume 277.84
_cell_formula_units_Z 2
_symmetry_space_group_name_H-M 'P 4/n m m Z'
_symmetry_Int_Tables_number 129
_refine_ls_R_factor_all 0.013
loop_
_symmetry_equiv_pos_site_id
_symmetry_equiv_pos_as_xyz
1 'y+1/2, x+1/2, -z'
2 '-y, x+1/2, -z'
3 'y+1/2, -x, -z'
4 '-y, -x, -z'
5 'x+1/2, y+1/2, -z'
6 '-x, y+1/2, -z'
7 'x+1/2, -y, -z'
8 '-x, -y, -z'
9 '-y+1/2, -x+1/2, z'
10 'y, -x+1/2, z'
11 '-y+1/2, x, z'
12 'y, x, z'
13 '-x+1/2, -y+1/2, z'
14 'x, -y+1/2, z'
15 '-x+1/2, y, z'
16 'x, y, z'
loop_
_atom_type_symbol
_atom_type_oxidation_number
Ba2+ 2
In3+ 3
O2- -2
Br1- -1
loop_
_atom_site_label
_atom_site_type_symbol
_atom_site_symmetry_multiplicity
_atom_site_Wyckoff_symbol
_atom_site_fract_x
_atom_site_fract_y
_atom_site_fract_z
_atom_site_B_iso_or_equiv
_atom_site_occupancy
_atom_site_attached_hydrogens
Ba1 Ba2+ 2 c 0.25 0.25 0.34054(12) . 1. 0
Ba2 Ba2+ 2 c 0.25 0.25 0.09274(12) . 1. 0
In1 In3+ 2 c 0.75 0.75 0.20681(14) . 1. 0
O1 O2- 4 f 0.75 0.25 0.22980(7) . 1. 0
O2 O2- 2 c 0.75 0.75 0.07263(12) . 1. 0
Br1 Br1- 2 c 0.75 0.75 0.4245(1) . 1. 0
loop_
_atom_site_aniso_label
_atom_site_aniso_type_symbol
_atom_site_aniso_B_11
_atom_site_aniso_B_22
_atom_site_aniso_B_33
_atom_site_aniso_B_12
_atom_site_aniso_B_13
_atom_site_aniso_B_23
Ba1 Ba2+ 0.71(5) 0.71(5) 1.21(9) 0 0 0
Ba2 Ba2+ 1.30(6) 1.30(6) 0.67(8) 0 0 0
In1 In3+ 0.72(5) 0.72(5) 0.19(1) 0 0 0
O1 O2- 1.37(5) 0.40(5) 1.61(7) 0 0 0
O2 O2- 2.03(5) 2.03(5) 0.82(8) 0 0 0
Br1 Br1- 1.24(4) 1.24(4) 2.13(9) 0 0 0
#End of TTdata_81878-ICSD