
data_82143-ICSD
_database_code_ICSD 82143
_audit_creation_date 1999-11-30
_audit_update_record 2006-04-01
_chemical_name_systematic 'Potassium tecto-tetrathiodiargentoantimonate'
_chemical_formula_structural 'K (Ag2 Sb S4)'
_chemical_formula_sum 'Ag2 K1 S4 Sb1'
_chemical_name_structure_type K3VO4
_exptl_crystal_density_diffrn 4.19
_cell_measurement_temperature 295.
_cell_length_a 6.886(1)
_cell_length_b 6.886(1)
_cell_length_c 8.438(2)
_cell_angle_alpha 90.
_cell_angle_beta 90.
_cell_angle_gamma 90.
_cell_volume 400.1
_cell_formula_units_Z 2
_symmetry_space_group_name_H-M 'I -4 2 m'
_symmetry_Int_Tables_number 121
_refine_ls_R_factor_all 0.04
loop_
_symmetry_equiv_pos_site_id
_symmetry_equiv_pos_as_xyz
1 '-y, -x, z'
2 'y, x, z'
3 'y, -x, -z'
4 '-y, x, -z'
5 'x, -y, -z'
6 '-x, y, -z'
7 '-x, -y, z'
8 'x, y, z'
9 '-y+1/2, -x+1/2, z+1/2'
10 'y+1/2, x+1/2, z+1/2'
11 'y+1/2, -x+1/2, -z+1/2'
12 '-y+1/2, x+1/2, -z+1/2'
13 'x+1/2, -y+1/2, -z+1/2'
14 '-x+1/2, y+1/2, -z+1/2'
15 '-x+1/2, -y+1/2, z+1/2'
16 'x+1/2, y+1/2, z+1/2'
loop_
_atom_type_symbol
_atom_type_oxidation_number
K1+ 1
Ag1+ 1
Sb5+ 5
S2- -2
loop_
_atom_site_label
_atom_site_type_symbol
_atom_site_symmetry_multiplicity
_atom_site_Wyckoff_symbol
_atom_site_fract_x
_atom_site_fract_y
_atom_site_fract_z
_atom_site_B_iso_or_equiv
_atom_site_occupancy
_atom_site_attached_hydrogens
K1 K1+ 2 a 0 0 0 0.033(4) 1. 0
Ag1 Ag1+ 4 d 0 0.5 0.25 0.053(1) 1. 0
Sb1 Sb5+ 2 b 0 0 0.5 0.014(1) 1. 0
S1 S2- 8 i 0.3010(6) 0.6990(6) 0.1580(7) 0.023(2) 1. 0
