
#(C) 2017 by FIZ Karlsruhe - Leibniz Institute for Information Infrastructure.  All rights reserved.
data_82533-ICSD
_database_code_ICSD 82533
_audit_creation_date 1997-11-10
_chemical_name_systematic 'Tristrontium germanide dinitridogermanate'
_chemical_formula_structural 'Sr3 Ge (Ge N2)'
_chemical_formula_sum 'Ge2 N2 Sr3'
_chemical_name_structure_type Ba3Ge2N2
_exptl_crystal_density_diffrn 4.63
_cell_measurement_temperature 295.
_publ_section_title

;
Synthesis and structure of two new strontium germanium nitrides: Sr3 Ge2 N2
and Sr2 Ge N2
;
loop_
_citation_id
_citation_journal_full
_citation_year
_citation_journal_volume
_citation_page_first
_citation_page_last
_citation_journal_id_ASTM
primary 'Inorganic Chemistry' 1996 35 7009 7012 INOCAJ
loop_
_publ_author_name
'Clarke, S.J.'
'Kowach, G.R.'
'DiSalvo, F.J.'
_cell_length_a 9.032(2)
_cell_length_b 3.883(1)
_cell_length_c 9.648(2)
_cell_angle_alpha 90.
_cell_angle_beta 112.42(3)
_cell_angle_gamma 90.
_cell_volume 312.79
_cell_formula_units_Z 2
_symmetry_space_group_name_H-M 'P 1 21/m 1'
_symmetry_Int_Tables_number 11
_refine_ls_R_factor_all 0.106
loop_
_symmetry_equiv_pos_site_id
_symmetry_equiv_pos_as_xyz
1 'x, -y+1/2, z'
2 '-x, -y, -z'
3 '-x, y+1/2, -z'
4 'x, y, z'
loop_
_atom_type_symbol
_atom_type_oxidation_number
Sr2+ 2
Ge4+ 4
Ge4- -4
N3- -3
loop_
_atom_site_label
_atom_site_type_symbol
_atom_site_symmetry_multiplicity
_atom_site_Wyckoff_symbol
_atom_site_fract_x
_atom_site_fract_y
_atom_site_fract_z
_atom_site_B_iso_or_equiv
_atom_site_occupancy
_atom_site_attached_hydrogens
Sr1 Sr2+ 2 e 0.3165(2) 0.25 0.9442(3) 0.026(1) 1. 0
Sr2 Sr2+ 2 e 0.5202(3) 0.25 0.6701(3) 0.026(1) 1. 0
Sr3 Sr2+ 2 e 0.1175(4) 0.25 0.3522(3) 0.027(1) 1. 0
Ge1 Ge4+ 2 e 0.7580(4) 0.25 0.3485(3) 0.026(1) 1. 0
Ge2 Ge4- 2 e 0.9155(4) 0.25 0.9441(3) 0.028(1) 1. 0
N1 N3- 2 e 0.6804(34) 0.25 0.5108(26) 0.039(6) 1. 0
N2 N3- 2 e 0.5733(32) 0.25 0.1784(24) 0.034(6) 1. 0
#End of TTdata_82533-ICSD