
data_82558-ICSD
_database_code_ICSD 82558
_audit_creation_date 1997-11-10
_chemical_name_systematic 'Tetracopper(I) tetrathiotitanate'
_chemical_formula_structural 'Cu4 (Ti S4)'
_chemical_formula_sum 'Cu4 S4 Ti1'
_exptl_crystal_density_diffrn 4.56
_cell_length_a 5.448(1)
_cell_length_b 5.448(1)
_cell_length_c 10.565(2)
_cell_angle_alpha 90.
_cell_angle_beta 90.
_cell_angle_gamma 90.
_cell_volume 313.58
_cell_formula_units_Z 2
_symmetry_space_group_name_H-M 'I -4 2 m'
_symmetry_Int_Tables_number 121
_refine_ls_R_factor_all 0.024
loop_
_symmetry_equiv_pos_site_id
_symmetry_equiv_pos_as_xyz
1 '-y, -x, z'
2 'y, x, z'
3 'y, -x, -z'
4 '-y, x, -z'
5 'x, -y, -z'
6 '-x, y, -z'
7 '-x, -y, z'
8 'x, y, z'
9 '-y+1/2, -x+1/2, z+1/2'
10 'y+1/2, x+1/2, z+1/2'
11 'y+1/2, -x+1/2, -z+1/2'
12 '-y+1/2, x+1/2, -z+1/2'
13 'x+1/2, -y+1/2, -z+1/2'
14 '-x+1/2, y+1/2, -z+1/2'
15 '-x+1/2, -y+1/2, z+1/2'
16 'x+1/2, y+1/2, z+1/2'
loop_
_atom_type_symbol
_atom_type_oxidation_number
Cu1+ 1
Ti4+ 4
S2- -2
loop_
_atom_site_label
_atom_site_type_symbol
_atom_site_symmetry_multiplicity
_atom_site_Wyckoff_symbol
_atom_site_fract_x
_atom_site_fract_y
_atom_site_fract_z
_atom_site_B_iso_or_equiv
_atom_site_occupancy
_atom_site_attached_hydrogens
Cu1 Cu1+ 4 e 0.5 0.5 0.2396(1) . 1. 0
Cu2 Cu1+ 4 c 0.5 0 0.5 . 1. 0
Ti1 Ti4+ 2 a 0.5 0.5 0.5 . 1. 0
S1 S2- 8 i 0.2415(3) 0.2415(3) 0.1245(1) . 1. 0
loop_
_atom_site_aniso_label
_atom_site_aniso_type_symbol
_atom_site_aniso_U_11
_atom_site_aniso_U_22
_atom_site_aniso_U_33
_atom_site_aniso_U_12
_atom_site_aniso_U_13
_atom_site_aniso_U_23
Cu1 Cu1+ 0.0218(3) 0.0218(3) 0.0155(4) -.004(1) 0 0
Cu2 Cu1+ 0.0178(5) 0.0058(5) 0.0234(4) 0 0 0
Ti1 Ti4+ 0.0047(6) 0.0047(6) 0.0089(8) 0 0 0
S1 S2- 0.0098(5) 0.0098(5) 0.0153(7) 0.0010(6) 0.0009(6) 0.0009(6)
