
#(C) 2017 by FIZ Karlsruhe - Leibniz Institute for Information Infrastructure.  All rights reserved.
data_8256-ICSD
_database_code_ICSD 8256
_audit_creation_date 1980-01-01
_audit_update_record 1984-04-06
_chemical_name_systematic 'Hexahydroxoplatinic acid'
_chemical_formula_structural 'H2 Pt (O H)6'
_chemical_formula_sum 'H8 O6 Pt1'
_exptl_crystal_density_diffrn 4.41
_publ_section_title 'The structure of platinic acid'
loop_
_citation_id
_citation_journal_full
_citation_year
_citation_journal_volume
_citation_page_first
_citation_page_last
_citation_journal_id_ASTM
primary 'Acta Crystallographica B (24,1968-38,1982)' 1979 35 3014 3015 ACBCAR
loop_
_publ_author_name
'Scott, H.G.'
_cell_length_a 8.459(5)
_cell_length_b 7.184(5)
_cell_length_c 7.429(4)
_cell_angle_alpha 90.
_cell_angle_beta 93.71(2)
_cell_angle_gamma 90.
_cell_volume 450.51
_cell_formula_units_Z 4
_symmetry_space_group_name_H-M 'C 1 2/c 1'
_symmetry_Int_Tables_number 15
loop_
_symmetry_equiv_pos_site_id
_symmetry_equiv_pos_as_xyz
1 'x, -y, z+1/2'
2 '-x, -y, -z'
3 '-x, y, -z+1/2'
4 'x, y, z'
5 'x+1/2, -y+1/2, z+1/2'
6 '-x+1/2, -y+1/2, -z'
7 '-x+1/2, y+1/2, -z+1/2'
8 'x+1/2, y+1/2, z'
loop_
_atom_type_symbol
_atom_type_oxidation_number
Pt4+ 4
O2- -2
H1+ 1
loop_
_atom_site_label
_atom_site_type_symbol
_atom_site_symmetry_multiplicity
_atom_site_Wyckoff_symbol
_atom_site_fract_x
_atom_site_fract_y
_atom_site_fract_z
_atom_site_B_iso_or_equiv
_atom_site_occupancy
_atom_site_attached_hydrogens
Pt1 Pt4+ 4 c 0.25 0.25 0 1.65 1. 0
O1 O2- 8 f 0.469(5) 0.352(5) 0.088(5) 1.65 1. 0
O2 O2- 8 f 0.151(4) 0.514(6) -.005(6) 1.65 1. 0
O3 O2- 8 f 0.185(3) 0.218(8) 0.267(4) 1.65 1. 0
#End of TTdata_8256-ICSD