
#(C) 2017 by FIZ Karlsruhe - Leibniz Institute for Information Infrastructure.  All rights reserved.
data_82560-ICSD
_database_code_ICSD 82560
_audit_creation_date 1997-11-10
_audit_update_record 1998-06-26
_chemical_name_systematic 'Thallium copper(I) zircon trisulfide'
_chemical_formula_structural 'Tl (Cu Zr S3)'
_chemical_formula_sum 'Cu1 S3 Tl1 Zr1'
_chemical_name_structure_type KCuZrS3
_exptl_crystal_density_diffrn 5.93
_publ_section_title

;
Quaternary halogenides of the IVa metals with layered structures: preparation
and crystal structures of Tl Cu T(IV) Q3 (T = Zr, Hf; Q= S, Se) and their
relation to the Re3 B structure type
;
loop_
_citation_id
_citation_journal_full
_citation_year
_citation_journal_volume
_citation_page_first
_citation_page_last
_citation_journal_id_ASTM
primary 'Journal of Alloys and Compounds' 1996 243 6 11 JALCEU
loop_
_publ_author_name
'Klepp, K.O.'
'Gurtner, D.'
_cell_length_a 3.726(4)
_cell_length_b 13.987(9)
_cell_length_c 9.783(4)
_cell_angle_alpha 90.
_cell_angle_beta 90.
_cell_angle_gamma 90.
_cell_volume 509.85
_cell_formula_units_Z 4
_symmetry_space_group_name_H-M 'C m c m'
_symmetry_Int_Tables_number 63
_refine_ls_R_factor_all 0.016
loop_
_symmetry_equiv_pos_site_id
_symmetry_equiv_pos_as_xyz
1 '-x, y, -z+1/2'
2 '-x, -y, z+1/2'
3 '-x, y, z'
4 '-x, -y, -z'
5 'x, -y, z+1/2'
6 'x, y, -z+1/2'
7 'x, -y, -z'
8 'x, y, z'
9 '-x+1/2, y+1/2, -z+1/2'
10 '-x+1/2, -y+1/2, z+1/2'
11 '-x+1/2, y+1/2, z'
12 '-x+1/2, -y+1/2, -z'
13 'x+1/2, -y+1/2, z+1/2'
14 'x+1/2, y+1/2, -z+1/2'
15 'x+1/2, -y+1/2, -z'
16 'x+1/2, y+1/2, z'
loop_
_atom_type_symbol
_atom_type_oxidation_number
Tl1+ 1
Zr4+ 4
Cu1+ 1
S2- -2
loop_
_atom_site_label
_atom_site_type_symbol
_atom_site_symmetry_multiplicity
_atom_site_Wyckoff_symbol
_atom_site_fract_x
_atom_site_fract_y
_atom_site_fract_z
_atom_site_B_iso_or_equiv
_atom_site_occupancy
_atom_site_attached_hydrogens
Tl1 Tl1+ 4 c 0.5 0.24188(2) 0.25 1.887(7) 1. 0
Zr1 Zr4+ 4 a 0.5 0.5 0 0.65(1) 1. 0
Cu1 Cu1+ 4 c 0 0.45831(7) 0.25 1.04(2) 1. 0
S1 S2- 4 c 0 0.0603(1) 0.25 0.68(3) 1. 0
S2 S2- 8 f 0 0.37620(9) 0.0473(1) 0.67(2) 1. 0
#End of TTdata_82560-ICSD