
#(C) 2017 by FIZ Karlsruhe - Leibniz Institute for Information Infrastructure.  All rights reserved.
data_82605-ICSD
_database_code_ICSD 82605
_audit_creation_date 1997-11-10
_chemical_name_systematic 'Tantalum nickel telluride (1/2/3)'
_chemical_formula_structural 'Ta Ni2 Te3'
_chemical_formula_sum 'Ni2 Ta1 Te3'
_chemical_name_structure_type TlCuTiTe3
_exptl_crystal_density_diffrn 8.46
_cell_measurement_temperature 296.
_publ_section_title

;
Synthesis and crystal structure of a new layered ternary tantalum telluride Ta
Ni2 Te3
;
loop_
_citation_id
_citation_journal_full
_citation_year
_citation_journal_volume
_citation_page_first
_citation_page_last
_citation_journal_id_ASTM
primary 'Jiegon Huaxue' 1996 15 318 322 JHUADF
loop_
_publ_author_name
'Zhang, B.'
'Wang, Z.-M.'
'Liu, S.-X.'
'Huang, J.-L.'
_cell_length_a 7.473(2)
_cell_length_b 3.708(1)
_cell_length_c 10.074(2)
_cell_angle_alpha 90.
_cell_angle_beta 106.78(2)
_cell_angle_gamma 90.
_cell_volume 267.26
_cell_formula_units_Z 2
_symmetry_space_group_name_H-M 'P 1 21/m 1'
_symmetry_Int_Tables_number 11
_refine_ls_R_factor_all 0.053
loop_
_symmetry_equiv_pos_site_id
_symmetry_equiv_pos_as_xyz
1 'x, -y+1/2, z'
2 '-x, -y, -z'
3 '-x, y+1/2, -z'
4 'x, y, z'
loop_
_atom_type_symbol
_atom_type_oxidation_number
Ta0+ 0
Ni0+ 0
Te0+ 0
loop_
_atom_site_label
_atom_site_type_symbol
_atom_site_symmetry_multiplicity
_atom_site_Wyckoff_symbol
_atom_site_fract_x
_atom_site_fract_y
_atom_site_fract_z
_atom_site_B_iso_or_equiv
_atom_site_occupancy
_atom_site_attached_hydrogens
Ta1 Ta0+ 2 e 0.2099(1) 0.25 0.70228(7) 0.87(3) 1. 0
Ni1 Ni0+ 2 e 0.0441(4) 0.25 0.4303(2) 0.97(8) 1. 0
Ni2 Ni0+ 2 e 0.4001(4) 0.75 0.9097(2) 1.11(9) 1. 0
Te1 Te0+ 2 e 0.5816(2) 0.25 0.8324(1) 1.08(4) 1. 0
Te2 Te0+ 2 e 0.2831(2) 0.75 0.5055(1) 0.93(4) 1. 0
Te3 Te0+ 2 e 0.0427(2) 0.75 0.8354(1) 1.06(4) 1. 0
#End of TTdata_82605-ICSD