
#(C) 2017 by FIZ Karlsruhe - Leibniz Institute for Information Infrastructure.  All rights reserved.
data_8288-ICSD
_database_code_ICSD 8288
_audit_creation_date 1980-01-01
_audit_update_record 2005-10-01
_chemical_name_systematic 'Calcium dichromium oxide - beta'
_chemical_formula_structural 'Ca Cr2 O4'
_chemical_formula_sum 'Ca1 Cr2 O4'
_chemical_name_structure_type CaFe2O4
_exptl_crystal_density_diffrn 4.83
_publ_section_title 'Einkristalluntersuchungen von beta - Ca Cr2 O4'
loop_
_citation_id
_citation_journal_full
_citation_year
_citation_journal_volume
_citation_page_first
_citation_page_last
_citation_journal_id_ASTM
primary

;
Zeitschrift fuer Naturforschung, Teil B. Anorganische Chemie, Organische
Chemie (2,1947-32,1977)
; 1976 31 1710 1711 ZENBAX
loop_
_publ_author_name
'Hoerkner, W.'
'Mueller Buschbaum, H.'
_cell_length_a 10.639
_cell_length_b 9.094
_cell_length_c 2.96
_cell_angle_alpha 90.
_cell_angle_beta 90.
_cell_angle_gamma 90.
_cell_volume 286.38
_cell_formula_units_Z 4
_symmetry_space_group_name_H-M 'P b n m'
_symmetry_Int_Tables_number 62
_refine_ls_R_factor_all 0.072
loop_
_symmetry_equiv_pos_site_id
_symmetry_equiv_pos_as_xyz
1 '-x+1/2, y+1/2, z'
2 'x, y, -z+1/2'
3 'x+1/2, -y+1/2, z+1/2'
4 '-x, -y, -z'
5 'x+1/2, -y+1/2, -z'
6 '-x, -y, z+1/2'
7 '-x+1/2, y+1/2, -z+1/2'
8 'x, y, z'
loop_
_atom_type_symbol
_atom_type_oxidation_number
Ca2+ 2
Cr3+ 3
O2- -2
loop_
_atom_site_label
_atom_site_type_symbol
_atom_site_symmetry_multiplicity
_atom_site_Wyckoff_symbol
_atom_site_fract_x
_atom_site_fract_y
_atom_site_fract_z
_atom_site_B_iso_or_equiv
_atom_site_occupancy
_atom_site_attached_hydrogens
Ca1 Ca2+ 4 c 0.6594 0.7593 0.25 0.74 1. 0
Cr1 Cr3+ 4 c 0.6124 0.4403 0.25 0.26 1. 0
Cr2 Cr3+ 4 c 0.101 0.4169 0.25 0.28 1. 0
O1 O2- 4 c 0.1596 0.2007 0.25 0.17 1. 0
O2 O2- 4 c 0.4757 0.1151 0.25 0.06 1. 0
O3 O2- 4 c 0.786 0.5285 0.25 0.11 1. 0
O4 O2- 4 c 0.4262 0.4177 0.25 0.7 1. 0
#End of TTdata_8288-ICSD