
#(C) 2017 by FIZ Karlsruhe - Leibniz Institute for Information Infrastructure.  All rights reserved.
data_83493-ICSD
_database_code_ICSD 83493
_audit_creation_date 1998-06-26
_chemical_name_systematic 'Yttrium dicopper tetraoxide'
_chemical_formula_structural 'Y Cu2 O4'
_chemical_formula_sum 'Cu2 O4 Y1'
_chemical_name_structure_type NdCu2O4-x
_exptl_crystal_density_diffrn 6.1
_publ_section_title

;
Crystallization of Ln Cu2 O4 (Ln = La, Nd, Sm, Eu, Gd, Dy, Ho, Y, Er) from
hydroxide melts: synthesis and structure
;
loop_
_citation_id
_citation_journal_full
_citation_year
_citation_journal_volume
_citation_page_first
_citation_page_last
_citation_journal_id_ASTM
primary 'Chemistry of Materials' 1997 9 1508 1515 CMATEX
loop_
_publ_author_name
'Luce, J.L.'
'Stacy, A.M.'
_cell_length_a 5.6867(3)
_cell_length_b 9.5723(4)
_cell_length_c 5.6062(3)
_cell_angle_alpha 90.
_cell_angle_beta 92.460(1)
_cell_angle_gamma 90.
_cell_volume 304.89
_cell_formula_units_Z 4
_symmetry_space_group_name_H-M 'I 1 2/a 1'
_symmetry_Int_Tables_number 15
_refine_ls_R_factor_all 0.062
loop_
_symmetry_equiv_pos_site_id
_symmetry_equiv_pos_as_xyz
1 'x+1/2, -y, z'
2 '-x, -y, -z'
3 '-x+1/2, y, -z'
4 'x, y, z'
5 'x, -y+1/2, z+1/2'
6 '-x+1/2, -y+1/2, -z+1/2'
7 '-x, y+1/2, -z+1/2'
8 'x+1/2, y+1/2, z+1/2'
loop_
_atom_type_symbol
_atom_type_oxidation_number
Y3+ 3
Cu2+ 2.5
O2- -2
loop_
_atom_site_label
_atom_site_type_symbol
_atom_site_symmetry_multiplicity
_atom_site_Wyckoff_symbol
_atom_site_fract_x
_atom_site_fract_y
_atom_site_fract_z
_atom_site_B_iso_or_equiv
_atom_site_occupancy
_atom_site_attached_hydrogens
Y1 Y3+ 4 e 0.25 0.1252(2) 0 0.063(1) 1. 0
Cu1 Cu2+ 4 c 0.75 0.25 0.75 0.050(1) 1. 0
Cu2 Cu2+ 4 b 0 0.5 0 0.050(1) 1. 0
O1 O2- 8 f 0.533(1) 0.836(1) 0.632(1) 0.051(3) 1. 0
O2 O2- 8 f 0.897(1) 0.071(1) 0.196(1) 0.032(3) 1. 0
#End of TTdata_83493-ICSD