
#(C) 2017 by FIZ Karlsruhe - Leibniz Institute for Information Infrastructure.  All rights reserved.
data_83613-ICSD
_database_code_ICSD 83613
_audit_creation_date 1998-06-26
_chemical_name_systematic 'Potassium amminetrichloroplatinate hydrate'
_chemical_formula_structural 'K (Pt Cl3 (N H3)) (H2 O)'
_chemical_formula_sum 'H5 Cl3 K1 N1 O1 Pt1'
_chemical_name_structure_type KPtNH3Cl3H2O
_exptl_crystal_density_diffrn 3.22
_cell_measurement_temperature 193.
_publ_section_title

;
A novel characterization of "Cossa's salt" Kx (N H4)1-x (Pt Cl3 N H3) . (H2 O)
by crystallographic comparison with the stoichiometric compounds K (Pt Cl3 N
H3) . (H2 O) and N H4 (Pt Cl3 NH3) . (H2 O)
;
loop_
_citation_id
_citation_journal_full
_citation_year
_citation_journal_volume
_citation_page_first
_citation_page_last
_citation_journal_id_ASTM
primary 'Inorganica Chimica Acta' 1997 260 53 60 ICHAA3
loop_
_publ_author_name
'Oksanen, A.'
_cell_length_a 4.546(3)
_cell_length_b 20.990(10)
_cell_length_c 8.114(5)
_cell_angle_alpha 90.
_cell_angle_beta 90.
_cell_angle_gamma 90.
_cell_volume 774.24
_cell_formula_units_Z 4
_symmetry_space_group_name_H-M 'C m c 21'
_symmetry_Int_Tables_number 36
_refine_ls_R_factor_all 0.041
loop_
_symmetry_equiv_pos_site_id
_symmetry_equiv_pos_as_xyz
1 'x, -y, z+1/2'
2 '-x, -y, z+1/2'
3 '-x, y, z'
4 'x, y, z'
5 'x+1/2, -y+1/2, z+1/2'
6 '-x+1/2, -y+1/2, z+1/2'
7 '-x+1/2, y+1/2, z'
8 'x+1/2, y+1/2, z'
loop_
_atom_type_symbol
_atom_type_oxidation_number
Pt2+ 2
Cl1- -1
O2- -2
N3- -3
K1+ 1
H1+ 1
loop_
_atom_site_label
_atom_site_type_symbol
_atom_site_symmetry_multiplicity
_atom_site_Wyckoff_symbol
_atom_site_fract_x
_atom_site_fract_y
_atom_site_fract_z
_atom_site_B_iso_or_equiv
_atom_site_occupancy
_atom_site_attached_hydrogens
Pt1 Pt2+ 4 a 0 0.34333(4) 0.25 . 1. 0
Cl1 Cl1- 4 a 0 0.4537(2) 0.260(2) . 1. 0
Cl2 Cl1- 4 a 0 0.3357(7) 0.523(3) . 1. 0
Cl3 Cl1- 4 a 0 0.3443(6) -.036(3) . 1. 0
O1 O2- 4 a 0 0.0729(9) 0.132(2) . 1. 0
N1 N3- 4 a 0 0.2475(8) 0.290(3) 0.022(5) 1. 0
K1 K1+ 4 a 0 0.0391(3) 0.4645(9) . 1. 0
loop_
_atom_site_aniso_label
_atom_site_aniso_type_symbol
_atom_site_aniso_U_11
_atom_site_aniso_U_22
_atom_site_aniso_U_33
_atom_site_aniso_U_12
_atom_site_aniso_U_13
_atom_site_aniso_U_23
Pt1 Pt2+ 0.0160(3) 0.0123(3) 0.0397(6) 0 0 0.000(2)
Cl1 Cl1- 0.030(2) 0.015(2) 0.027(3) 0 0 0.003(6)
Cl2 Cl1- 0.11(1) 0.044(9) 0.032(8) 0 0 0.011(6)
Cl3 Cl1- 0.10(1) 0.013(4) 0.039(8) 0 0 -.006(4)
O1 O2- 0.05(1) 0.03(1) 0.03(1) 0 0 0.015(9)
K1 K1+ 0.030(3) 0.025(3) 0.029(3) 0 0 0.003(3)
#End of TTdata_83613-ICSD