
#(C) 2017 by FIZ Karlsruhe - Leibniz Institute for Information Infrastructure.  All rights reserved.
data_83863-ICSD
_database_code_ICSD 83863
_audit_creation_date 1999-01-19
_chemical_name_systematic 'Hafnium oxide'
_chemical_formula_structural 'Hf O2'
_chemical_formula_sum 'Hf1 O2'
_chemical_name_structure_type HfO2
_exptl_crystal_density_diffrn 11.79
_publ_section_title

;
Characterization of the cotunnite-type phases of zirconia and hafnia by
neutron diffraction and Raman spectroscopy
;
loop_
_citation_id
_citation_journal_full
_citation_year
_citation_journal_volume
_citation_page_first
_citation_page_last
_citation_journal_id_ASTM
primary 'Journal of the American Ceramic Society' 1997 80 1910 1914 JACTAW
loop_
_publ_author_name
'Haines, J.'
'Leger, J.M.'
'Hull, S.'
'Petitet, J.P.'
'Pereira, A.S.'
'Perottoni, C.A.'
'da Jornada, J.A.H.'
_cell_length_a 5.5544(1)
_cell_length_b 6.4572(2)
_cell_length_c 3.3070(1)
_cell_angle_alpha 90.
_cell_angle_beta 90.
_cell_angle_gamma 90.
_cell_volume 118.61
_cell_formula_units_Z 4
_symmetry_space_group_name_H-M 'P n a m'
_symmetry_Int_Tables_number 62
_refine_ls_R_factor_all 0.041
loop_
_symmetry_equiv_pos_site_id
_symmetry_equiv_pos_as_xyz
1 'x+1/2, -y+1/2, z'
2 'x, y, -z+1/2'
3 '-x+1/2, y+1/2, z+1/2'
4 '-x, -y, -z'
5 '-x+1/2, y+1/2, -z'
6 '-x, -y, z+1/2'
7 'x+1/2, -y+1/2, -z+1/2'
8 'x, y, z'
loop_
_atom_type_symbol
_atom_type_oxidation_number
Hf4+ 4
O2- -2
loop_
_atom_site_label
_atom_site_type_symbol
_atom_site_symmetry_multiplicity
_atom_site_Wyckoff_symbol
_atom_site_fract_x
_atom_site_fract_y
_atom_site_fract_z
_atom_site_B_iso_or_equiv
_atom_site_occupancy
_atom_site_attached_hydrogens
Hf1 Hf4+ 4 c 0.2461(2) 0.1104(2) 0.25 0.11(1) 1. 0
O1 O2- 4 c 0.3591(3) 0.4256(2) 0.25 0.18(2) 1. 0
O2 O2- 4 c 0.0245(2) 0.3388(3) 0.75 0.34(2) 1. 0
#End of TTdata_83863-ICSD