
#(C) 2017 by FIZ Karlsruhe - Leibniz Institute for Information Infrastructure.  All rights reserved.
data_84203-ICSD
_database_code_ICSD 84203
_audit_creation_date 1999-01-19
_chemical_name_systematic 'Scandium iron silicide (1/1/1)'
_chemical_formula_structural 'Sc Fe Si'
_chemical_formula_sum 'Fe1 Sc1 Si1'
_chemical_name_structure_type TiNiSi-MgSrSi
_exptl_crystal_density_diffrn 4.68
_publ_section_title

;
Scandium iron silicides with Ti Ni Si - , Hf3 Ni2 Si3 - and Sc2 Co Si2 - type
structures
;
loop_
_citation_id
_citation_journal_full
_citation_year
_citation_journal_volume
_citation_page_first
_citation_page_last
_citation_journal_id_ASTM
primary 'Journal of the Less-Common Metals' 1984 96 331 340 JCOMAH
loop_
_publ_author_name
'Chabot, B.'
'Engel, N.'
'Parthe, E.'
_cell_length_a 6.519(2)
_cell_length_b 3.846(2)
_cell_length_c 7.298(2)
_cell_angle_alpha 90.
_cell_angle_beta 90.
_cell_angle_gamma 90.
_cell_volume 182.98
_cell_formula_units_Z 4
_symmetry_space_group_name_H-M 'P n m a'
_symmetry_Int_Tables_number 62
_refine_ls_R_factor_all 0.062
loop_
_symmetry_equiv_pos_site_id
_symmetry_equiv_pos_as_xyz
1 'x+1/2, y, -z+1/2'
2 'x, -y+1/2, z'
3 '-x+1/2, y+1/2, z+1/2'
4 '-x, -y, -z'
5 '-x+1/2, -y, z+1/2'
6 '-x, y+1/2, -z'
7 'x+1/2, -y+1/2, -z+1/2'
8 'x, y, z'
loop_
_atom_type_symbol
_atom_type_oxidation_number
Sc0+ 0
Fe0+ 0
Si0+ 0
loop_
_atom_site_label
_atom_site_type_symbol
_atom_site_symmetry_multiplicity
_atom_site_Wyckoff_symbol
_atom_site_fract_x
_atom_site_fract_y
_atom_site_fract_z
_atom_site_B_iso_or_equiv
_atom_site_occupancy
_atom_site_attached_hydrogens
Sc1 Sc0+ 4 c 0.0133(4) 0.25 0.6829(3) 0.0050(6) 1. 0
Fe1 Fe0+ 4 c 0.1481(3) 0.25 0.0588(3) 0.0058(5) 1. 0
Si1 Si0+ 4 c 0.2853(6) 0.25 0.3803(5) 0.0072(7) 1. 0
#End of TTdata_84203-ICSD