
#(C) 2017 by FIZ Karlsruhe - Leibniz Institute for Information Infrastructure.  All rights reserved.
data_84535-ICSD
_database_code_ICSD 84535
_audit_creation_date 1999-01-19
_audit_update_record 2010-02-01
_chemical_name_systematic 'Oxonium thallium(III) bis(sulfate(VI))'
_chemical_formula_structural '(H3 O) Tl (S O4)2'
_chemical_formula_sum 'H3 O9 S2 Tl1'
_exptl_crystal_density_diffrn 3.97
_publ_section_title
'Mobility of oxonium ions in indium and thallium acid sulfate monohydrates'
loop_
_citation_id
_citation_journal_full
_citation_year
_citation_journal_volume
_citation_page_first
_citation_page_last
_citation_journal_id_ASTM
primary 'Zhurnal Neorganicheskoi Khimii' 1983 28 2495 2498 ZNOKAQ
loop_
_publ_author_name
'Yaroslavtsev, A.B.'
'Prozorovskaya, Z.N.'
'Chuvaev, V.F.'
'Spitsyn, V.I.'
_cell_length_a 4.923(3)
_cell_length_b 4.923(3)
_cell_length_c 24.820(10)
_cell_angle_alpha 90.
_cell_angle_beta 90.
_cell_angle_gamma 120.
_cell_volume 520.95
_cell_formula_units_Z 3
_symmetry_space_group_name_H-M 'R 3 2 H'
_symmetry_Int_Tables_number 155
loop_
_symmetry_equiv_pos_site_id
_symmetry_equiv_pos_as_xyz
1 '-x, -x+y, -z'
2 'x-y, -y, -z'
3 'y, x, -z'
4 '-x+y, -x, z'
5 '-y, x-y, z'
6 'x, y, z'
7 '-x+2/3, -x+y+1/3, -z+1/3'
8 'x-y+2/3, -y+1/3, -z+1/3'
9 'y+2/3, x+1/3, -z+1/3'
10 '-x+y+2/3, -x+1/3, z+1/3'
11 '-y+2/3, x-y+1/3, z+1/3'
12 'x+2/3, y+1/3, z+1/3'
13 '-x+1/3, -x+y+2/3, -z+2/3'
14 'x-y+1/3, -y+2/3, -z+2/3'
15 'y+1/3, x+2/3, -z+2/3'
16 '-x+y+1/3, -x+2/3, z+2/3'
17 '-y+1/3, x-y+2/3, z+2/3'
18 'x+1/3, y+2/3, z+2/3'
loop_
_atom_type_symbol
_atom_type_oxidation_number
O2- -2
Tl3+ 3
S6+ 6
O2- -2
H1+ 1
loop_
_atom_site_label
_atom_site_type_symbol
_atom_site_symmetry_multiplicity
_atom_site_Wyckoff_symbol
_atom_site_fract_x
_atom_site_fract_y
_atom_site_fract_z
_atom_site_B_iso_or_equiv
_atom_site_occupancy
_atom_site_attached_hydrogens
O1 O2- 3 a 0 0 0 . 1. 0
Tl1 Tl3+ 3 b 0 0 0.5 . 1. 0
S1 S6+ 6 c 0 0 0.24 . 1. 0
O2 O2- 6 c 0 0 0.3 . 1. 0
O3 O2- 18 f 0.276 -.005 0.221 . 1. 0
#End of TTdata_84535-ICSD