
data_84567-ICSD
_database_code_ICSD 84567
_audit_creation_date 1999-01-19
_chemical_name_systematic 'Antimony vanadium oxide (1/1/4)'
_chemical_formula_structural '(Sb V) O4'
_chemical_formula_sum 'O4 Sb1 V1'
_exptl_crystal_density_diffrn 6.
_cell_length_a 6.5174(2)
_cell_length_b 6.5174(2)
_cell_length_c 6.1734(2)
_cell_angle_alpha 90.
_cell_angle_beta 90.
_cell_angle_gamma 90.
_cell_volume 262.22
_cell_formula_units_Z 4
_symmetry_space_group_name_H-M 'I 41 m d'
_symmetry_Int_Tables_number 109
loop_
_symmetry_equiv_pos_site_id
_symmetry_equiv_pos_as_xyz
1 'y, -x+1/2, z+1/4'
2 '-y, x+1/2, z+1/4'
3 'x, -y, z'
4 '-x, y, z'
5 '-y, -x+1/2, z+1/4'
6 'y, x+1/2, z+1/4'
7 '-x, -y, z'
8 'x, y, z'
9 'y+1/2, -x, z+3/4'
10 '-y+1/2, x, z+3/4'
11 'x+1/2, -y+1/2, z+1/2'
12 '-x+1/2, y+1/2, z+1/2'
13 '-y+1/2, -x, z+3/4'
14 'y+1/2, x, z+3/4'
15 '-x+1/2, -y+1/2, z+1/2'
16 'x+1/2, y+1/2, z+1/2'
loop_
_atom_type_symbol
_atom_type_oxidation_number
V3+ 3
Sb5+ 5
O2- -2
loop_
_atom_site_label
_atom_site_type_symbol
_atom_site_symmetry_multiplicity
_atom_site_Wyckoff_symbol
_atom_site_fract_x
_atom_site_fract_y
_atom_site_fract_z
_atom_site_B_iso_or_equiv
_atom_site_occupancy
_atom_site_attached_hydrogens
V1 V3+ 4 a 0 0 0 . 1. 0
Sb1 Sb5+ 4 a 0 0 0.5 . 1. 0
O1 O2- 8 b 0 0.304 0 . 1. 0
O2 O2- 8 b 0 0.696 0.5 . 1. 0
