
#(C) 2017 by FIZ Karlsruhe - Leibniz Institute for Information Infrastructure.  All rights reserved.
data_84723-ICSD
_database_code_ICSD 84723
_audit_creation_date 1999-01-19
_chemical_name_systematic 'Strontium triselenozirconate'
_chemical_formula_structural 'Sr (Zr Se3)'
_chemical_formula_sum 'Se3 Sr1 Zr1'
_chemical_name_structure_type NH4CdCl3/Sn2S3
_exptl_crystal_density_diffrn 5.38
_publ_section_title 'Structural evolutions in the Sr1-x Bax Zr Se3 series'
loop_
_citation_id
_citation_journal_full
_citation_year
_citation_journal_volume
_citation_page_first
_citation_page_last
_citation_journal_id_ASTM
primary 'Journal of Solid State Chemistry' 1997 130 20 27 JSSCBI
loop_
_publ_author_name
'Tranchitella, L.J.'
'Chen, B.-H.'
'Fettinger, J.C.'
'Eichhorn, B.W.'
_cell_length_a 8.915(1)
_cell_length_b 3.965(1)
_cell_length_c 14.514(1)
_cell_angle_alpha 90.
_cell_angle_beta 90.
_cell_angle_gamma 90.
_cell_volume 513.04
_cell_formula_units_Z 4
_symmetry_space_group_name_H-M 'P n m a'
_symmetry_Int_Tables_number 62
_refine_ls_R_factor_all 0.054
loop_
_symmetry_equiv_pos_site_id
_symmetry_equiv_pos_as_xyz
1 'x+1/2, y, -z+1/2'
2 'x, -y+1/2, z'
3 '-x+1/2, y+1/2, z+1/2'
4 '-x, -y, -z'
5 '-x+1/2, -y, z+1/2'
6 '-x, y+1/2, -z'
7 'x+1/2, -y+1/2, -z+1/2'
8 'x, y, z'
loop_
_atom_type_symbol
_atom_type_oxidation_number
Sr2+ 2
Zr4+ 4
Se2- -2
loop_
_atom_site_label
_atom_site_type_symbol
_atom_site_symmetry_multiplicity
_atom_site_Wyckoff_symbol
_atom_site_fract_x
_atom_site_fract_y
_atom_site_fract_z
_atom_site_B_iso_or_equiv
_atom_site_occupancy
_atom_site_attached_hydrogens
Sr1 Sr2+ 4 c 0.4404(5) 0.25 0.6792(3) . 1. 0
Zr1 Zr4+ 4 c 0.1720(5) 0.25 0.4416(3) . 1. 0
Se1 Se2- 4 c 0.0195(6) 0.25 0.6086(3) . 1. 0
Se2 Se2- 4 c 0.1637(6) 0.25 0.0128(3) . 1. 0
Se3 Se2- 4 c 0.2886(5) 0.25 0.2816(4) . 1. 0
#End of TTdata_84723-ICSD