
data_85126-ICSD
_database_code_ICSD 85126
_audit_creation_date 1999-06-02
_chemical_name_systematic 'Dicopper iron tin tetraselenide'
_chemical_formula_structural 'Cu2 Fe Sn Se4'
_chemical_formula_sum 'Cu2 Fe1 Se4 Sn1'
_chemical_name_structure_type Stannite-Cu2FeSnS4
_exptl_crystal_density_diffrn 5.6
_cell_length_a 5.694(2)
_cell_length_b 5.694(2)
_cell_length_c 11.286(4)
_cell_angle_alpha 90.
_cell_angle_beta 90.
_cell_angle_gamma 90.
_cell_volume 365.91
_cell_formula_units_Z 2
_symmetry_space_group_name_H-M 'I -4 2 m'
_symmetry_Int_Tables_number 121
_refine_ls_R_factor_all 0.055
loop_
_symmetry_equiv_pos_site_id
_symmetry_equiv_pos_as_xyz
1 '-y, -x, z'
2 'y, x, z'
3 'y, -x, -z'
4 '-y, x, -z'
5 'x, -y, -z'
6 '-x, y, -z'
7 '-x, -y, z'
8 'x, y, z'
9 '-y+1/2, -x+1/2, z+1/2'
10 'y+1/2, x+1/2, z+1/2'
11 'y+1/2, -x+1/2, -z+1/2'
12 '-y+1/2, x+1/2, -z+1/2'
13 'x+1/2, -y+1/2, -z+1/2'
14 '-x+1/2, y+1/2, -z+1/2'
15 '-x+1/2, -y+1/2, z+1/2'
16 'x+1/2, y+1/2, z+1/2'
loop_
_atom_type_symbol
_atom_type_oxidation_number
Fe2+ 2
Sn2+ 2
Cu2+ 2
Se2- -2
loop_
_atom_site_label
_atom_site_type_symbol
_atom_site_symmetry_multiplicity
_atom_site_Wyckoff_symbol
_atom_site_fract_x
_atom_site_fract_y
_atom_site_fract_z
_atom_site_B_iso_or_equiv
_atom_site_occupancy
_atom_site_attached_hydrogens
Fe1 Fe2+ 2 a 0 0 0 . 1. 0
Sn1 Sn2+ 2 b 0 0 0.5 . 1. 0
Cu1 Cu2+ 4 d 0 0.5 0.25 . 1. 0
Se1 Se2- 8 i 0.2412(4) 0.2412(4) 0.1317(1) . 1. 0
loop_
_atom_site_aniso_label
_atom_site_aniso_type_symbol
_atom_site_aniso_U_11
_atom_site_aniso_U_22
_atom_site_aniso_U_33
_atom_site_aniso_U_12
_atom_site_aniso_U_13
_atom_site_aniso_U_23
Fe1 Fe2+ 0.014(2) 0.014(2) 0.014(2) 0 0 0
Sn1 Sn2+ 0.014(1) 0.014(1) 0.016(1) 0 0 0
Cu1 Cu2+ 0.020(2) 0.020(2) 0.022(2) 0 0 0
Se1 Se2- 0.022(1) 0.022(1) 0.020(1) -.0004(8) 0.0003(5) 0.0003(5)
