
#(C) 2017 by FIZ Karlsruhe - Leibniz Institute for Information Infrastructure.  All rights reserved.
data_85141-ICSD
_database_code_ICSD 85141
_audit_creation_date 1999-06-02
_chemical_name_systematic 'Scandium chromate(III)'
_chemical_formula_structural 'Sc (Cr O3)'
_chemical_formula_sum 'Cr1 O3 Sc1'
_chemical_name_structure_type Perovskite-GdFeO3
_exptl_crystal_density_diffrn 4.84
_publ_section_title 'High pressure synthesis of a new chromite, Sc Cr O3'
loop_
_citation_id
_citation_journal_full
_citation_year
_citation_journal_volume
_citation_page_first
_citation_page_last
_citation_journal_id_ASTM
primary 'Materials Research Bulletin' 1997 32 1617 1624 MRBUAC
loop_
_publ_author_name
'Park, J.-H.'
'Parise, J.B.'
_cell_length_a 5.03274(6)
_cell_length_b 5.36010(7)
_cell_length_c 7.37887(9)
_cell_angle_alpha 90.
_cell_angle_beta 90.
_cell_angle_gamma 90.
_cell_volume 199.05
_cell_formula_units_Z 4
_symmetry_space_group_name_H-M 'P b n m'
_symmetry_Int_Tables_number 62
_refine_ls_R_factor_all 0.058
loop_
_symmetry_equiv_pos_site_id
_symmetry_equiv_pos_as_xyz
1 '-x+1/2, y+1/2, z'
2 'x, y, -z+1/2'
3 'x+1/2, -y+1/2, z+1/2'
4 '-x, -y, -z'
5 'x+1/2, -y+1/2, -z'
6 '-x, -y, z+1/2'
7 '-x+1/2, y+1/2, -z+1/2'
8 'x, y, z'
loop_
_atom_type_symbol
_atom_type_oxidation_number
Sc3+ 3
Cr3+ 3
O2- -2
loop_
_atom_site_label
_atom_site_type_symbol
_atom_site_symmetry_multiplicity
_atom_site_Wyckoff_symbol
_atom_site_fract_x
_atom_site_fract_y
_atom_site_fract_z
_atom_site_B_iso_or_equiv
_atom_site_occupancy
_atom_site_attached_hydrogens
Sc1 Sc3+ 4 c -.0221(3) 0.0716(2) 0.25 0.0133(3) 1. 0
Cr1 Cr3+ 4 b 0 0.5 0 0.0088(3) 1. 0
O1 O2- 4 c 0.1348(7) 0.4404(7) 0.25 0.0080(9) 1. 0
O2 O2- 8 d 0.6848(5) 0.3095(5) 0.0669(4) 0.0112(9) 1. 0
#End of TTdata_85141-ICSD