
#(C) 2017 by FIZ Karlsruhe - Leibniz Institute for Information Infrastructure.  All rights reserved.
data_85283-ICSD
_database_code_ICSD 85283
_audit_creation_date 1999-06-02
_chemical_name_systematic 'Yttrium nickel boride carbide (1/1/1/1)'
_chemical_formula_structural 'Y Ni B C'
_chemical_formula_sum 'C1 B1 Ni1 Y1'
_chemical_name_structure_type CoUC2
_exptl_crystal_density_diffrn 5.89
_publ_section_title

;
Identification of the new intermetallic compounds Y3 Ni4 B4 C3 and Y1 Ni1 B1
C1; related homologous series (Ln C)m (B Ni2 -B)n
;
loop_
_citation_id
_citation_journal_full
_citation_year
_citation_journal_volume
_citation_page_first
_citation_page_last
_citation_journal_id_ASTM
primary 'Physica C, Superconductivity' 1997 291 332 340 PHYCE6
loop_
_publ_author_name
'Kito, H.'
'Ikeda, S.'
'Takekawa, S.'
'Abe, H.'
'Kitazawa, H.'
_cell_length_a 3.5660(5)
_cell_length_b 3.5660(5)
_cell_length_c 7.5625(12)
_cell_angle_alpha 90.
_cell_angle_beta 90.
_cell_angle_gamma 90.
_cell_volume 96.17
_cell_formula_units_Z 2
_symmetry_space_group_name_H-M 'P 4/n m m Z'
_symmetry_Int_Tables_number 129
_refine_ls_R_factor_all 0.039
loop_
_symmetry_equiv_pos_site_id
_symmetry_equiv_pos_as_xyz
1 'y+1/2, x+1/2, -z'
2 '-y, x+1/2, -z'
3 'y+1/2, -x, -z'
4 '-y, -x, -z'
5 'x+1/2, y+1/2, -z'
6 '-x, y+1/2, -z'
7 'x+1/2, -y, -z'
8 '-x, -y, -z'
9 '-y+1/2, -x+1/2, z'
10 'y, -x+1/2, z'
11 '-y+1/2, x, z'
12 'y, x, z'
13 '-x+1/2, -y+1/2, z'
14 'x, -y+1/2, z'
15 '-x+1/2, y, z'
16 'x, y, z'
loop_
_atom_type_symbol
_atom_type_oxidation_number
Y0+ 0
Ni0+ 0
B0+ 0
C0+ 0
loop_
_atom_site_label
_atom_site_type_symbol
_atom_site_symmetry_multiplicity
_atom_site_Wyckoff_symbol
_atom_site_fract_x
_atom_site_fract_y
_atom_site_fract_z
_atom_site_B_iso_or_equiv
_atom_site_occupancy
_atom_site_attached_hydrogens
Y1 Y0+ 2 c 0.25 0.25 0.164(3) 0.3 1. 0
Ni1 Ni0+ 2 b 0.75 0.25 0.5 0.29 1. 0
B1 B0+ 2 c 0.75 0.75 0.22(4) 0.6 1. 0
C1 C0+ 2 c 0.75 0.75 0.336(3) 0.6 1. 0
#End of TTdata_85283-ICSD