
data_85302-ICSD
_database_code_ICSD 85302
_audit_creation_date 1999-06-02
_audit_update_record 2015-02-01
_chemical_name_systematic 'Antimony sulfide - II'
_chemical_formula_structural 'Sb2 S3'
_chemical_formula_sum 'S3 Sb2'
_chemical_name_mineral Stibnite
_exptl_crystal_density_diffrn 4.63
_cell_measurement_temperature 320.
_cell_length_a 11.233(2)
_cell_length_b 11.315(2)
_cell_length_c 3.838(1)
_cell_angle_alpha 90.
_cell_angle_beta 90.
_cell_angle_gamma 90.
_cell_volume 487.82
_cell_formula_units_Z 4
_symmetry_space_group_name_H-M 'P 21 n m'
_symmetry_Int_Tables_number 31
_refine_ls_R_factor_all 0.03
loop_
_symmetry_equiv_pos_site_id
_symmetry_equiv_pos_as_xyz
1 'x+1/2, -y, z+1/2'
2 'x+1/2, -y, -z+1/2'
3 'x, y, -z'
4 'x, y, z'
loop_
_atom_type_symbol
_atom_type_oxidation_number
Sb3+ 3
S2- -2
Sb3+ 3
S2- -2
loop_
_atom_site_label
_atom_site_type_symbol
_atom_site_symmetry_multiplicity
_atom_site_Wyckoff_symbol
_atom_site_fract_x
_atom_site_fract_y
_atom_site_fract_z
_atom_site_B_iso_or_equiv
_atom_site_occupancy
_atom_site_attached_hydrogens
Sb1 Sb3+ 2 a 0.17383(10) 0.72002(14) 0.5 0.0151(3) 1. 0
Sb2 Sb3+ 2 a 0.46429(15) 0.59969(15) 0 0.0218(3) 1. 0
S1 S2- 2 a 0.0603(5) 0.6225(6) 0 0.0175(9) 1. 0
S2 S2- 2 a 0.3060(5) 0.5408(5) 0.5 0.0117(8) 1. 0
S3 S2- 2 a 0.3755(5) 0.7980(5) 0 0.0147(9) 1. 0
Sb3 Sb3+ 2 a 0.82601(11) 0.77866(15) 0 0.0170(3) 1. 0
Sb4 Sb3+ 2 a 0.53651(14) 0.89863(14) 0.5 0.0183(3) 1. 0
S4 S2- 2 a 0.9378(5) 0.8724(5) 0.5 0.0132(8) 1. 0
S5 S2- 2 a 0.6889(5) 0.9566(6) 0 0.0180(11) 1. 0
S6 S2- 2 a 0.6219(5) 0.5989(5) 0.5 0.0152(9) 1. 0
