
#(C) 2017 by FIZ Karlsruhe - Leibniz Institute for Information Infrastructure.  All rights reserved.
data_85466-ICSD
_database_code_ICSD 85466
_audit_creation_date 1999-06-02
_chemical_name_systematic 'Strontium calcium indium germanide (1/2/2/1)'
_chemical_formula_structural 'Sr Ca2 In2 Ge'
_chemical_formula_sum 'Ca2 Ge1 In2 Sr1'
_exptl_crystal_density_diffrn 4.95
_publ_section_title

;
Synthesis, structure and bonding of Sr Ca2 In2 Ge : a new Zintl phase with an
unusual inorganic pi-system
;
loop_
_citation_id
_citation_journal_full
_citation_year
_citation_journal_volume
_citation_page_first
_citation_page_last
_citation_journal_id_ASTM
primary 'Journal of the American Chemical Society' 1997 119 10541 10542 JACSAT
loop_
_publ_author_name
'Xu, Z.-H.'
'Guloy, A.M.'
_cell_length_a 11.1569(9)
_cell_length_b 12.1285(6)
_cell_length_c 4.6582(4)
_cell_angle_alpha 90.
_cell_angle_beta 90.
_cell_angle_gamma 90.
_cell_volume 630.33
_cell_formula_units_Z 4
_symmetry_space_group_name_H-M 'P n n a'
_symmetry_Int_Tables_number 52
_refine_ls_R_factor_all 0.025
loop_
_symmetry_equiv_pos_site_id
_symmetry_equiv_pos_as_xyz
1 'x+1/2, -y+1/2, z+1/2'
2 '-x, y+1/2, z+1/2'
3 'x+1/2, y, -z'
4 '-x, -y, -z'
5 '-x+1/2, y+1/2, -z+1/2'
6 'x, -y+1/2, -z+1/2'
7 '-x+1/2, -y, z'
8 'x, y, z'
loop_
_atom_type_symbol
_atom_type_oxidation_number
Ge0+ 0
In0+ 0
Sr0+ 0
Ca0+ 0
loop_
_atom_site_label
_atom_site_type_symbol
_atom_site_symmetry_multiplicity
_atom_site_Wyckoff_symbol
_atom_site_fract_x
_atom_site_fract_y
_atom_site_fract_z
_atom_site_B_iso_or_equiv
_atom_site_occupancy
_atom_site_attached_hydrogens
Ge1 Ge0+ 4 d 0.1918(21) 0.25 0.25 . 1. 0
In1 In0+ 8 e 0.3384(1) 0.0803(2) 0.2553(1) . 1. 0
Sr1 Sr0+ 4 d -.0888(1) 0.25 0.25 . 1. 0
Ca1 Ca0+ 8 e 0.1183(2) 0.0922(2) 0.7418(1) . 1. 0
loop_
_atom_site_aniso_label
_atom_site_aniso_type_symbol
_atom_site_aniso_U_11
_atom_site_aniso_U_22
_atom_site_aniso_U_33
_atom_site_aniso_U_12
_atom_site_aniso_U_13
_atom_site_aniso_U_23
Ge1 Ge0+ 0.0155(1) 0.0166(2) 0.0166(2) 0 0 -.010(3)
In1 In0+ 0.0146(1) 0.0152(1) 0.0150(1) -.0021(3) -.0021(3) -.0030(2)
Sr1 Sr0+ 0.0122(1) 0.0136(2) 0.0143(1) 0 0 -.013(2)
Ca1 Ca0+ 0.0191(1) 0.0194(3) 0.0192(3) -.0014(2) -.0016(4) 0.0024(3)
#End of TTdata_85466-ICSD