
#(C) 2017 by FIZ Karlsruhe - Leibniz Institute for Information Infrastructure.  All rights reserved.
data_85499-ICSD
_database_code_ICSD 85499
_audit_creation_date 1999-06-02
_audit_update_record 2003-10-01
_chemical_name_systematic 'Rubidium tetrafluoroferrate(III) - II, HT'
_chemical_formula_structural 'Rb (Fe F4)'
_chemical_formula_sum 'F4 Fe1 Rb1'
_chemical_name_structure_type KAlF4(tP12)
_exptl_crystal_density_diffrn 3.89
_cell_measurement_temperature 440.
_publ_section_title
'Structural phase transitions in the layer compound Rb Fe F4'
loop_
_citation_id
_citation_journal_full
_citation_year
_citation_journal_volume
_citation_page_first
_citation_page_last
_citation_journal_id_ASTM
primary 'Physica Status Solidi A - Applications and Materials' 1986 97 387 395
PSSABA
loop_
_publ_author_name
'Hidaka, M.'
'Akiyama, H.'
'Wanklyn, B.M.'
_cell_length_a 5.383(1)
_cell_length_b 5.383(1)
_cell_length_c 6.410(1)
_cell_angle_alpha 90.
_cell_angle_beta 90.
_cell_angle_gamma 90.
_cell_volume 185.74
_cell_formula_units_Z 2
_symmetry_space_group_name_H-M 'P 4/m b m'
_symmetry_Int_Tables_number 127
_refine_ls_R_factor_all 0.086
loop_
_symmetry_equiv_pos_site_id
_symmetry_equiv_pos_as_xyz
1 'y+1/2, x+1/2, -z'
2 '-y+1/2, -x+1/2, -z'
3 '-y, x, -z'
4 'y, -x, -z'
5 'x+1/2, -y+1/2, -z'
6 '-x+1/2, y+1/2, -z'
7 'x, y, -z'
8 '-x, -y, -z'
9 '-y+1/2, -x+1/2, z'
10 'y+1/2, x+1/2, z'
11 'y, -x, z'
12 '-y, x, z'
13 '-x+1/2, y+1/2, z'
14 'x+1/2, -y+1/2, z'
15 '-x, -y, z'
16 'x, y, z'
loop_
_atom_type_symbol
_atom_type_oxidation_number
Rb1+ 1
Fe3+ 3
F1- -1
loop_
_atom_site_label
_atom_site_type_symbol
_atom_site_symmetry_multiplicity
_atom_site_Wyckoff_symbol
_atom_site_fract_x
_atom_site_fract_y
_atom_site_fract_z
_atom_site_B_iso_or_equiv
_atom_site_occupancy
_atom_site_attached_hydrogens
Rb1 Rb1+ 2 c 0 0.5 0.5 . 1. 0
Fe1 Fe3+ 2 a 0 0 0 . 1. 0
F1 F1- 4 g 0.300(8) 0.800(8) 0 . 1. 0
F2 F1- 4 e 0 0 0.279(9) . 1. 0
loop_
_atom_site_aniso_label
_atom_site_aniso_type_symbol
_atom_site_aniso_U_11
_atom_site_aniso_U_22
_atom_site_aniso_U_33
_atom_site_aniso_U_12
_atom_site_aniso_U_13
_atom_site_aniso_U_23
Rb1 Rb1+ 0.020(3) 0.020(3) 0.017(1) 0.009(5) 0 0
Fe1 Fe3+ 0.004(2) 0.004(2) 0.042(4) 0 0 0
F1 F1- 0.006(10) 0.006(10) 0.145(53) 0.006(6) 0 0
F2 F1- 0.019(11) 0.019(11) 0.078(24) 0 0 0
#End of TTdata_85499-ICSD