
#(C) 2017 by FIZ Karlsruhe - Leibniz Institute for Information Infrastructure.  All rights reserved.
data_85508-ICSD
_database_code_ICSD 85508
_audit_creation_date 1999-06-02
_audit_update_record 2013-02-01
_chemical_name_systematic 'Hafnium telluride (1/5)'
_chemical_formula_structural 'Hf Te5'
_chemical_formula_sum 'Hf1 Te5'
_chemical_name_structure_type HfTe5
_exptl_crystal_density_diffrn 6.86
_publ_section_title
'Structural properties of Zr Te5 and Hf Te5 as seen by powder diffraction'
loop_
_citation_id
_citation_journal_full
_citation_year
_citation_journal_volume
_citation_page_first
_citation_page_last
_citation_journal_id_ASTM
primary 'Solid State Communications' 1986 60 91 93 SSCOA4
loop_
_publ_author_name
'Fjellvag, H.'
'Kjekshus, A.'
_cell_length_a 3.9713(6)
_cell_length_b 14.499(3)
_cell_length_c 13.729(2)
_cell_angle_alpha 90.
_cell_angle_beta 90.
_cell_angle_gamma 90.
_cell_volume 790.51
_cell_formula_units_Z 4
_symmetry_space_group_name_H-M 'C m c m'
_symmetry_Int_Tables_number 63
_refine_ls_R_factor_all 0.1
loop_
_symmetry_equiv_pos_site_id
_symmetry_equiv_pos_as_xyz
1 '-x, y, -z+1/2'
2 '-x, -y, z+1/2'
3 '-x, y, z'
4 '-x, -y, -z'
5 'x, -y, z+1/2'
6 'x, y, -z+1/2'
7 'x, -y, -z'
8 'x, y, z'
9 '-x+1/2, y+1/2, -z+1/2'
10 '-x+1/2, -y+1/2, z+1/2'
11 '-x+1/2, y+1/2, z'
12 '-x+1/2, -y+1/2, -z'
13 'x+1/2, -y+1/2, z+1/2'
14 'x+1/2, y+1/2, -z+1/2'
15 'x+1/2, -y+1/2, -z'
16 'x+1/2, y+1/2, z'
loop_
_atom_type_symbol
_atom_type_oxidation_number
Hf4+ 4
Te2- -2
Te1- -1
Te0+ 0
loop_
_atom_site_label
_atom_site_type_symbol
_atom_site_symmetry_multiplicity
_atom_site_Wyckoff_symbol
_atom_site_fract_x
_atom_site_fract_y
_atom_site_fract_z
_atom_site_B_iso_or_equiv
_atom_site_occupancy
_atom_site_attached_hydrogens
Hf1 Hf4+ 4 c 0 0.3155(7) 0.25 . 1. 0
Te1 Te2- 4 c 0 0.6575(9) 0.25 . 1. 0
Te2 Te1- 8 f 0 0.9340(8) 0.1487(7) . 1. 0
Te3 Te0+ 8 f 0 0.2092(7) 0.4350(7) . 1. 0
#End of TTdata_85508-ICSD