
data_85526-ICSD
_database_code_ICSD 85526
_audit_creation_date 1999-06-02
_chemical_name_systematic 'Silicon chloride (1/2)'
_chemical_formula_structural 'Si Cl2'
_chemical_formula_sum 'Cl2 Si1'
_exptl_crystal_density_diffrn 1.79
_cell_measurement_temperature 133.
_cell_length_a 4.0569(10)
_cell_length_b 6.783(2)
_cell_length_c 13.346(3)
_cell_angle_alpha 90.
_cell_angle_beta 90.
_cell_angle_gamma 90.
_cell_volume 367.25
_cell_formula_units_Z 4
_symmetry_space_group_name_H-M 'P 21 21 21'
_symmetry_Int_Tables_number 19
_refine_ls_R_factor_all 0.186
loop_
_symmetry_equiv_pos_site_id
_symmetry_equiv_pos_as_xyz
1 '-x, y+1/2, -z+1/2'
2 'x+1/2, -y+1/2, -z'
3 '-x+1/2, -y, z+1/2'
4 'x, y, z'
loop_
_atom_type_symbol
_atom_type_oxidation_number
Si0+ 0
Cl0+ 0
loop_
_atom_site_label
_atom_site_type_symbol
_atom_site_symmetry_multiplicity
_atom_site_Wyckoff_symbol
_atom_site_fract_x
_atom_site_fract_y
_atom_site_fract_z
_atom_site_B_iso_or_equiv
_atom_site_occupancy
_atom_site_attached_hydrogens
Si1 Si0+ 4 a 0.4676(19) 0.3435(10) 0.5120(5) . 1. 0
Cl1 Cl0+ 4 a 0.4741(20) 0.5758(10) 0.4057(5) . 1. 0
Cl2 Cl0+ 4 a 0.4761(22) 0.4537(11) 0.6581(5) . 1. 0
loop_
_atom_site_aniso_label
_atom_site_aniso_type_symbol
_atom_site_aniso_U_11
_atom_site_aniso_U_22
_atom_site_aniso_U_33
_atom_site_aniso_U_12
_atom_site_aniso_U_13
_atom_site_aniso_U_23
Si1 Si0+ 0.002(3) 0.018(2) 0.016(2) 0.002(2) 0.001(2) 0.002(2)
Cl1 Cl0+ 0.013(3) 0.019(3) 0.034(3) 0.008(3) -.003(3) 0.010(2)
Cl2 Cl0+ 0.015(3) 0.036(3) 0.027(2) -.010(3) 0.004(3) -.009(2)
