
#(C) 2017 by FIZ Karlsruhe - Leibniz Institute for Information Infrastructure.  All rights reserved.
data_85528-ICSD
_database_code_ICSD 85528
_audit_creation_date 1999-06-02
_audit_update_record 2010-02-01
_chemical_name_systematic 'Dicalcium auride nitride'
_chemical_formula_structural 'Ca2 Au N'
_chemical_formula_sum 'Au1 Ca2 N1'
_chemical_name_structure_type Sr2AuN
_exptl_crystal_density_diffrn 6.08
_publ_section_title 'Ca2 Au N: a nitride containing infinite zigzag gold chains'
loop_
_citation_id
_citation_journal_full
_citation_year
_citation_journal_volume
_citation_page_first
_citation_page_last
_citation_journal_id_ASTM
primary 'Angewandte Chemie. International Edition' 1998 37 2855 2857 ACIEF5
loop_
_publ_author_name
'Henry, P.F.'
'Weller, M.T.'
_cell_length_a 3.58139(4)
_cell_length_b 18.06421(19)
_cell_length_c 4.91905(5)
_cell_angle_alpha 90.
_cell_angle_beta 90.
_cell_angle_gamma 90.
_cell_volume 318.24
_cell_formula_units_Z 4
_symmetry_space_group_name_H-M 'C m c m'
_symmetry_Int_Tables_number 63
loop_
_symmetry_equiv_pos_site_id
_symmetry_equiv_pos_as_xyz
1 '-x, y, -z+1/2'
2 '-x, -y, z+1/2'
3 '-x, y, z'
4 '-x, -y, -z'
5 'x, -y, z+1/2'
6 'x, y, -z+1/2'
7 'x, -y, -z'
8 'x, y, z'
9 '-x+1/2, y+1/2, -z+1/2'
10 '-x+1/2, -y+1/2, z+1/2'
11 '-x+1/2, y+1/2, z'
12 '-x+1/2, -y+1/2, -z'
13 'x+1/2, -y+1/2, z+1/2'
14 'x+1/2, y+1/2, -z+1/2'
15 'x+1/2, -y+1/2, -z'
16 'x+1/2, y+1/2, z'
loop_
_atom_type_symbol
_atom_type_oxidation_number
Au1- -1
Ca2+ 2
N3- -3
loop_
_atom_site_label
_atom_site_type_symbol
_atom_site_symmetry_multiplicity
_atom_site_Wyckoff_symbol
_atom_site_fract_x
_atom_site_fract_y
_atom_site_fract_z
_atom_site_B_iso_or_equiv
_atom_site_occupancy
_atom_site_attached_hydrogens
Au1 Au1- 4 c 0 0.04026(6) 0.25 . 1. 0
Ca1 Ca2+ 4 c 0 0.39767(9) 0.25 . 1. 0
Ca2 Ca2+ 4 c 0 0.21499(8) 0.25 . 1. 0
N1 N3- 4 c 0 0.80663(4) 0.25 . 1. 0
loop_
_atom_site_aniso_label
_atom_site_aniso_type_symbol
_atom_site_aniso_U_11
_atom_site_aniso_U_22
_atom_site_aniso_U_33
_atom_site_aniso_U_12
_atom_site_aniso_U_13
_atom_site_aniso_U_23
Au1 Au1- 0.0396(7) 0.0126(5) 0.0096(5) 0 0 0
Ca1 Ca2+ 0.0139(7) 0.0110(7) 0.0159(8) 0 0 0
Ca2 Ca2+ 0.0090(7) 0.0099(8) 0.0096(7) 0 0 0
N1 N3- 0.0086(4) 0.0066(4) 0.0100(4) 0 0 0
#End of TTdata_85528-ICSD