
data_85578-ICSD
_database_code_ICSD 85578
_audit_creation_date 1999-11-30
_chemical_name_systematic 'Niobium disulfide'
_chemical_formula_structural 'Nb S2'
_chemical_formula_sum 'Nb1 S2'
_chemical_name_structure_type NbS2(oS6)
_exptl_crystal_density_diffrn 1.83
_cell_length_a 3.317(1)
_cell_length_b 5.790(1)
_cell_length_c 14.859(4)
_cell_angle_alpha 90.
_cell_angle_beta 90.
_cell_angle_gamma 90.
_cell_volume 285.37
_cell_formula_units_Z 2
_symmetry_space_group_name_H-M 'C m 2 m'
_symmetry_Int_Tables_number 38
_refine_ls_R_factor_all 0.053
loop_
_symmetry_equiv_pos_site_id
_symmetry_equiv_pos_as_xyz
1 '-x, y, z'
2 'x, y, -z'
3 '-x, y, -z'
4 'x, y, z'
5 '-x+1/2, y+1/2, z'
6 'x+1/2, y+1/2, -z'
7 '-x+1/2, y+1/2, -z'
8 'x+1/2, y+1/2, z'
loop_
_atom_type_symbol
_atom_type_oxidation_number
Nb4+ 4
S2- -2
loop_
_atom_site_label
_atom_site_type_symbol
_atom_site_symmetry_multiplicity
_atom_site_Wyckoff_symbol
_atom_site_fract_x
_atom_site_fract_y
_atom_site_fract_z
_atom_site_B_iso_or_equiv
_atom_site_occupancy
_atom_site_attached_hydrogens
Nb1 Nb4+ 2 b 0 0 0.5 . 1. 0
S1 S2- 4 c 0 0.3327(11) 0.3942(4) 0.008(2) 1. 0
loop_
_atom_site_aniso_label
_atom_site_aniso_type_symbol
_atom_site_aniso_U_11
_atom_site_aniso_U_22
_atom_site_aniso_U_33
_atom_site_aniso_U_12
_atom_site_aniso_U_13
_atom_site_aniso_U_23
Nb1 Nb4+ 0.0076(12) 0.0011(14) 0.0025(15) 0 0 0
