
#(C) 2017 by FIZ Karlsruhe - Leibniz Institute for Information Infrastructure.  All rights reserved.
data_85708-ICSD
_database_code_ICSD 85708
_audit_creation_date 1999-11-30
_chemical_name_systematic 'Dicesium triselenoaurate(I)'
_chemical_formula_structural 'Cs2 (Au2 Se3)'
_chemical_formula_sum 'Au2 Cs2 Se3'
_exptl_crystal_density_diffrn 6.32
_cell_measurement_temperature 294.
_publ_section_title

;
Polychalcogenoaurates(I) with pseudo-onedimensional structures: preparation
and crystal structure of Cs2 Au2 Se3
;
loop_
_citation_id
_citation_journal_full
_citation_year
_citation_journal_volume
_citation_page_first
_citation_page_last
_citation_journal_id_ASTM
primary 'European Journal of Solid State Inorganic Chemistry' 1998 35 101 110
EJSCE5
loop_
_publ_author_name
'Klepp, K.O.'
'Weithaler, C.'
_cell_length_a 9.769(5)
_cell_length_b 13.44(1)
_cell_length_c 7.178(3)
_cell_angle_alpha 90.
_cell_angle_beta 90.69(1)
_cell_angle_gamma 90.
_cell_volume 942.37
_cell_formula_units_Z 4
_symmetry_space_group_name_H-M 'C 1 2/c 1'
_symmetry_Int_Tables_number 15
_refine_ls_R_factor_all 0.042
loop_
_symmetry_equiv_pos_site_id
_symmetry_equiv_pos_as_xyz
1 'x, -y, z+1/2'
2 '-x, -y, -z'
3 '-x, y, -z+1/2'
4 'x, y, z'
5 'x+1/2, -y+1/2, z+1/2'
6 '-x+1/2, -y+1/2, -z'
7 '-x+1/2, y+1/2, -z+1/2'
8 'x+1/2, y+1/2, z'
loop_
_atom_type_symbol
_atom_type_oxidation_number
Cs1+ 1
Au1+ 1
Se2- -2
Se1- -1
loop_
_atom_site_label
_atom_site_type_symbol
_atom_site_symmetry_multiplicity
_atom_site_Wyckoff_symbol
_atom_site_fract_x
_atom_site_fract_y
_atom_site_fract_z
_atom_site_B_iso_or_equiv
_atom_site_occupancy
_atom_site_attached_hydrogens
Cs1 Cs1+ 8 f 0.2355(2) 0.1050(1) 0.1384(2) 2.49(3) 1. 0
Au1 Au1+ 8 f 0.0639(1) 0.29075(8) 0.4563(1) 2.18(2) 1. 0
Se1 Se2- 4 e 0 0.4240(3) 0.25 2.83(8) 1. 0
Se2 Se1- 8 f 0.3917(3) 0.3443(2) 0.3319(4) 2.62(5) 1. 0
#End of TTdata_85708-ICSD