
#(C) 2017 by FIZ Karlsruhe - Leibniz Institute for Information Infrastructure.  All rights reserved.
data_85760-ICSD
_database_code_ICSD 85760
_audit_creation_date 1999-11-30
_chemical_name_systematic 'Mercury bis(selenocyanate)'
_chemical_formula_structural 'Hg (Se C N)2'
_chemical_formula_sum 'C2 Hg1 N2 Se2'
_exptl_crystal_density_diffrn 4.53
_cell_measurement_temperature 150.
_publ_section_title

;
Solid-state (199)Hg MAS NMR studies of mercury(II) thiocyanate and related
compounds. Crystal structure of Hg (Se C N)2
;
loop_
_citation_id
_citation_journal_full
_citation_year
_citation_journal_volume
_citation_page_first
_citation_page_last
_citation_journal_id_ASTM
primary 'Inorganic Chemistry' 1998 37 1734 1743 INOCAJ
loop_
_publ_author_name
'Bowmaker, G.A.'
'Churakov, A.V.'
'Harris, R.K.'
'Howard, J.A.K.'
'Apperley, D.C.'
_cell_length_a 6.1245(2)
_cell_length_b 4.2277(2)
_cell_length_c 11.6449(5)
_cell_angle_alpha 90.
_cell_angle_beta 92.131(2)
_cell_angle_gamma 90.
_cell_volume 301.31
_cell_formula_units_Z 2
_symmetry_space_group_name_H-M 'P 1 21/c 1'
_symmetry_Int_Tables_number 14
_refine_ls_R_factor_all 0.056
loop_
_symmetry_equiv_pos_site_id
_symmetry_equiv_pos_as_xyz
1 'x, -y+1/2, z+1/2'
2 '-x, -y, -z'
3 '-x, y+1/2, -z+1/2'
4 'x, y, z'
loop_
_atom_type_symbol
_atom_type_oxidation_number
Hg2+ 2
Se2- -2
C4+ 4
N3- -3
loop_
_atom_site_label
_atom_site_type_symbol
_atom_site_symmetry_multiplicity
_atom_site_Wyckoff_symbol
_atom_site_fract_x
_atom_site_fract_y
_atom_site_fract_z
_atom_site_B_iso_or_equiv
_atom_site_occupancy
_atom_site_attached_hydrogens
Hg1 Hg2+ 2 a 0 0.5 0.5 0.042(1) 1. 0
Se1 Se2- 4 e 0.1599(2) 0.1569(2) 0.6533(1) 0.035(1) 1. 0
C1 C4+ 4 e 0.4478(15) 0.2292(23) 0.6252(10) 0.034(2) 1. 0
N1 N3- 4 e 0.6309(19) 0.2652(30) 0.6126(10) 0.055(2) 1. 0
#End of TTdata_85760-ICSD