
#(C) 2017 by FIZ Karlsruhe - Leibniz Institute for Information Infrastructure.  All rights reserved.
data_87197-ICSD
_database_code_ICSD 87197
_audit_creation_date 2000-12-16
_chemical_name_systematic 'Titanium copper silicide (1/1/1)'
_chemical_formula_structural 'Ti Cu Si'
_chemical_formula_sum 'Cu1 Si1 Ti1'
_chemical_name_structure_type TiNiSi-MgSrSi
_exptl_crystal_density_diffrn 5.6
_publ_section_title
'Die ternaeren Systeme (Titan, Zirkonium, Hafnium) - Kupfer Silizium'
loop_
_citation_id
_citation_journal_full
_citation_year
_citation_journal_volume
_citation_page_first
_citation_page_last
_citation_journal_id_ASTM
primary 'Journal of the Less-Common Metals' 1974 34 39 71 JCOMAH
loop_
_publ_author_name
'Sprenger, H.'
_cell_length_a 7.13
_cell_length_b 6.193
_cell_length_c 3.746
_cell_angle_alpha 90.
_cell_angle_beta 90.
_cell_angle_gamma 90.
_cell_volume 165.41
_cell_formula_units_Z 4
_symmetry_space_group_name_H-M 'P b n m'
_symmetry_Int_Tables_number 62
loop_
_symmetry_equiv_pos_site_id
_symmetry_equiv_pos_as_xyz
1 '-x+1/2, y+1/2, z'
2 'x, y, -z+1/2'
3 'x+1/2, -y+1/2, z+1/2'
4 '-x, -y, -z'
5 'x+1/2, -y+1/2, -z'
6 '-x, -y, z+1/2'
7 '-x+1/2, y+1/2, -z+1/2'
8 'x, y, z'
loop_
_atom_type_symbol
_atom_type_oxidation_number
Ti0+ 0
Cu0+ 0
Si0+ 0
loop_
_atom_site_label
_atom_site_type_symbol
_atom_site_symmetry_multiplicity
_atom_site_Wyckoff_symbol
_atom_site_fract_x
_atom_site_fract_y
_atom_site_fract_z
_atom_site_B_iso_or_equiv
_atom_site_occupancy
_atom_site_attached_hydrogens
Ti1 Ti0+ 4 c 0.18 0.02 0.25 . 1. 0
Cu1 Cu0+ 4 c 0.56 0.14 0.25 . 1. 0
Si1 Si0+ 4 c 0.62 0.77 0.25 . 1. 0
#End of TTdata_87197-ICSD