
#(C) 2017 by FIZ Karlsruhe - Leibniz Institute for Information Infrastructure.  All rights reserved.
data_87314-ICSD
_database_code_ICSD 87314
_audit_creation_date 2000-12-16
_audit_update_record 2016-02-01
_chemical_name_systematic 'Manganese cobalt silicide'
_chemical_formula_structural 'Mn Co Si'
_chemical_formula_sum 'Co1 Mn1 Si1'
_chemical_name_structure_type TiNiSi-MgSrSi
_exptl_crystal_density_diffrn 6.37
_publ_section_title 'Structure magnetique des Mn Co Si'
loop_
_citation_id
_citation_journal_full
_citation_year
_citation_journal_volume
_citation_page_first
_citation_page_last
_citation_journal_id_ASTM
primary 'Physica Status Solidi A - Applications and Materials' 1978 45 591 597
PSSABA
loop_
_publ_author_name
'Niziol, S.'
'Binczyska, H.'
'Szytula, A.'
'Todorovic, J.'
'Fruchart, R.'
'Senateur, J.P.'
'Fruchart, D.'
_cell_length_a 5.8571
_cell_length_b 3.6881
_cell_length_c 6.8556
_cell_angle_alpha 90.
_cell_angle_beta 90.
_cell_angle_gamma 90.
_cell_volume 148.09
_cell_formula_units_Z 4
_symmetry_space_group_name_H-M 'P n m a'
_symmetry_Int_Tables_number 62
loop_
_symmetry_equiv_pos_site_id
_symmetry_equiv_pos_as_xyz
1 'x+1/2, y, -z+1/2'
2 'x, -y+1/2, z'
3 '-x+1/2, y+1/2, z+1/2'
4 '-x, -y, -z'
5 '-x+1/2, -y, z+1/2'
6 '-x, y+1/2, -z'
7 'x+1/2, -y+1/2, -z+1/2'
8 'x, y, z'
loop_
_atom_type_symbol
_atom_type_oxidation_number
Mn2+ 2
Co2+ 2
Si4- -4
loop_
_atom_site_label
_atom_site_type_symbol
_atom_site_symmetry_multiplicity
_atom_site_Wyckoff_symbol
_atom_site_fract_x
_atom_site_fract_y
_atom_site_fract_z
_atom_site_B_iso_or_equiv
_atom_site_occupancy
_atom_site_attached_hydrogens
Mn1 Mn2+ 4 c 0.0193 0.25 0.1701 . 1. 0
Co1 Co2+ 4 c 0.1834 0.25 0.5706 . 1. 0
Si1 Si4- 4 c 0.7709 0.25 0.6167 . 1. 0
#End of TTdata_87314-ICSD