
data_87349-ICSD
_database_code_ICSD 87349
_audit_creation_date 2000-12-16
_audit_update_record 2014-08-01
_chemical_name_systematic 'Zirconium aluminium carbide (2/3/5)'
_chemical_formula_structural 'Zr2 Al3 C5'
_chemical_formula_sum 'C5 Al3 Zr2'
_chemical_name_structure_type Zr2Al3C5
_exptl_crystal_density_diffrn 4.99
_cell_length_a 3.3445
_cell_length_b 3.3445
_cell_length_c 22.23
_cell_angle_alpha 90.
_cell_angle_beta 90.
_cell_angle_gamma 120.
_cell_volume 215.34
_cell_formula_units_Z 2
_symmetry_space_group_name_H-M 'P 3 1 c'
_symmetry_Int_Tables_number 159
loop_
_symmetry_equiv_pos_site_id
_symmetry_equiv_pos_as_xyz
1 '-x, -x+y, z+1/2'
2 'x-y, -y, z+1/2'
3 'y, x, z+1/2'
4 '-x+y, -x, z'
5 '-y, x-y, z'
6 'x, y, z'
loop_
_atom_type_symbol
_atom_type_oxidation_number
Zr0+ 0
Al0+ 0
C0+ 0
loop_
_atom_site_label
_atom_site_type_symbol
_atom_site_symmetry_multiplicity
_atom_site_Wyckoff_symbol
_atom_site_fract_x
_atom_site_fract_y
_atom_site_fract_z
_atom_site_B_iso_or_equiv
_atom_site_occupancy
_atom_site_attached_hydrogens
Zr1 Zr0+ 2 b 0.3333 0.6667 0.1912 . 1. 0
Zr2 Zr0+ 2 b 0.3333 0.6667 0.8088 . 1. 0
Al1 Al0+ 2 a 0 0 0.09 . 1. 0
Al2 Al0+ 2 a 0 0 0.41 . 1. 0
Al3 Al0+ 2 b 0.6667 0.3333 0 . 1. 0
C1 C0+ 2 b 0.3333 0.6667 0.045 . 1. 0
C2 C0+ 2 b 0.6667 0.3333 0.1339 . 1. 0
C3 C0+ 2 b 0.3333 0.6667 0.3661 . 1. 0
C4 C0+ 2 b 0.6667 0.3333 0.455 . 1. 0
C5 C0+ 2 a 0 0 0.25 . 1. 0
