
#(C) 2017 by FIZ Karlsruhe - Leibniz Institute for Information Infrastructure.  All rights reserved.
data_87348-ICSD
_database_code_ICSD 87348
_audit_creation_date 2008-07-07
_audit_update_record 2017-08-01
_chemical_name_systematic 'Nickel platinum germanide (1/2/1)'
_chemical_formula_structural 'Ni Pt2 Ge'
_chemical_formula_sum 'Ge1 Ni1 Pt2'
_chemical_name_structure_type SiU3
_exptl_crystal_density_diffrn 15.67
_publ_section_title 'Zur Konstitution der Mischung Ni - Pt(N) - Ge(N)'
loop_
_citation_id
_citation_journal_full
_citation_year
_citation_journal_volume
_citation_page_first
_citation_page_last
_citation_journal_id_ASTM
primary 'Zeitschrift fuer Metallkunde' 1979 70 746 749 ZEMTAE
loop_
_publ_author_name
'Alasafi, Khaldoun M.'
'Schubert, Konrad'
_cell_length_a 7.364(2)
_cell_length_b 7.674(2)
_cell_length_c 7.822(2)
_cell_angle_alpha 90.
_cell_angle_beta 90.
_cell_angle_gamma 90.
_cell_volume 442.03
_cell_formula_units_Z 8
_symmetry_space_group_name_H-M 'F m m m'
_symmetry_Int_Tables_number 69
_refine_ls_R_factor_all 0.25
loop_
_symmetry_equiv_pos_site_id
_symmetry_equiv_pos_as_xyz
1 'x, y, -z'
2 'x, -y, z'
3 '-x, y, z'
4 '-x, -y, -z'
5 '-x, -y, z'
6 '-x, y, -z'
7 'x, -y, -z'
8 'x, y, z'
9 'x, y+1/2, -z+1/2'
10 'x, -y+1/2, z+1/2'
11 '-x, y+1/2, z+1/2'
12 '-x, -y+1/2, -z+1/2'
13 '-x, -y+1/2, z+1/2'
14 '-x, y+1/2, -z+1/2'
15 'x, -y+1/2, -z+1/2'
16 'x, y+1/2, z+1/2'
17 'x+1/2, y, -z+1/2'
18 'x+1/2, -y, z+1/2'
19 '-x+1/2, y, z+1/2'
20 '-x+1/2, -y, -z+1/2'
21 '-x+1/2, -y, z+1/2'
22 '-x+1/2, y, -z+1/2'
23 'x+1/2, -y, -z+1/2'
24 'x+1/2, y, z+1/2'
25 'x+1/2, y+1/2, -z'
26 'x+1/2, -y+1/2, z'
27 '-x+1/2, y+1/2, z'
28 '-x+1/2, -y+1/2, -z'
29 '-x+1/2, -y+1/2, z'
30 '-x+1/2, y+1/2, -z'
31 'x+1/2, -y+1/2, -z'
32 'x+1/2, y+1/2, z'
loop_
_atom_type_symbol
_atom_type_oxidation_number
Ni0+ 0
Pt0+ 0
Ge0+ 0
loop_
_atom_site_label
_atom_site_type_symbol
_atom_site_symmetry_multiplicity
_atom_site_Wyckoff_symbol
_atom_site_fract_x
_atom_site_fract_y
_atom_site_fract_z
_atom_site_B_iso_or_equiv
_atom_site_occupancy
_atom_site_attached_hydrogens
Ni1 Ni0+ 8 h 0 0.212 0 . 1. 0
Pt1 Pt0+ 8 g 0.282 0 0 . 1. 0
Pt2 Pt0+ 8 f 0.25 0.25 0.25 . 1. 0
Ge1 Ge0+ 8 i 0 0 0.243 . 1. 0
#End of TTdata_87348-ICSD