
#(C) 2017 by FIZ Karlsruhe - Leibniz Institute for Information Infrastructure.  All rights reserved.
data_87499-ICSD
_database_code_ICSD 87499
_audit_creation_date 2000-12-16
_chemical_name_systematic 'Iron sulfide - II'
_chemical_formula_structural 'Fe S'
_chemical_formula_sum 'Fe1 S1'
_chemical_name_structure_type MnP
_exptl_crystal_density_diffrn 5.31
_cell_measurement_pressure 5300000.
_publ_section_title 'High pressure structure of iron sulphide'
loop_
_citation_id
_citation_journal_full
_citation_year
_citation_journal_volume
_citation_page_first
_citation_page_last
_citation_journal_id_ASTM
primary 'Rev. High Pressure Sci. Technol.' 1998 7 202 204 KKGIE2
loop_
_publ_author_name
'Nelmes, R.J.'
'McMahon, M.I.'
'Belmonte, S.A.'
'Allan, D.R.'
'Gibbs, M.R.'
'Parise, J.B.'
_cell_length_a 5.700(1)
_cell_length_b 3.351(1)
_cell_length_c 5.757(1)
_cell_angle_alpha 90.
_cell_angle_beta 90.
_cell_angle_gamma 90.
_cell_volume 109.96
_cell_formula_units_Z 4
_symmetry_space_group_name_H-M 'P n m a'
_symmetry_Int_Tables_number 62
loop_
_symmetry_equiv_pos_site_id
_symmetry_equiv_pos_as_xyz
1 'x+1/2, y, -z+1/2'
2 'x, -y+1/2, z'
3 '-x+1/2, y+1/2, z+1/2'
4 '-x, -y, -z'
5 '-x+1/2, -y, z+1/2'
6 '-x, y+1/2, -z'
7 'x+1/2, -y+1/2, -z+1/2'
8 'x, y, z'
loop_
_atom_type_symbol
_atom_type_oxidation_number
Fe2+ 2
S2- -2
loop_
_atom_site_label
_atom_site_type_symbol
_atom_site_symmetry_multiplicity
_atom_site_Wyckoff_symbol
_atom_site_fract_x
_atom_site_fract_y
_atom_site_fract_z
_atom_site_B_iso_or_equiv
_atom_site_occupancy
_atom_site_attached_hydrogens
Fe1 Fe2+ 4 c 0.013(1) 0.25 0.204(1) . 1. 0
S1 S2- 4 c 0.219(1) 0.25 0.582(1) . 1. 0
#End of TTdata_87499-ICSD