
data_87888-ICSD
_database_code_ICSD 87888
_audit_creation_date 2001-07-16
_chemical_name_systematic 'Iron mercury tetrathiocyanate'
_chemical_formula_structural 'Fe Hg (S C N)4'
_chemical_formula_sum 'C4 Fe1 Hg1 N4 S4'
_chemical_name_structure_type CoHg(SCN)4
_exptl_crystal_density_diffrn 2.99
_cell_length_a 11.244(2)
_cell_length_b 11.244(2)
_cell_length_c 4.289(1)
_cell_angle_alpha 90.
_cell_angle_beta 90.
_cell_angle_gamma 90.
_cell_volume 542.25
_cell_formula_units_Z 2
_symmetry_space_group_name_H-M 'I -4'
_symmetry_Int_Tables_number 82
_refine_ls_R_factor_all 0.043
loop_
_symmetry_equiv_pos_site_id
_symmetry_equiv_pos_as_xyz
1 '-y, x, -z'
2 'y, -x, -z'
3 '-x, -y, z'
4 'x, y, z'
5 '-y+1/2, x+1/2, -z+1/2'
6 'y+1/2, -x+1/2, -z+1/2'
7 '-x+1/2, -y+1/2, z+1/2'
8 'x+1/2, y+1/2, z+1/2'
loop_
_atom_type_symbol
_atom_type_oxidation_number
Hg2+ 2
Fe2+ 2
S2- -2
C4+ 4
N3- -3
loop_
_atom_site_label
_atom_site_type_symbol
_atom_site_symmetry_multiplicity
_atom_site_Wyckoff_symbol
_atom_site_fract_x
_atom_site_fract_y
_atom_site_fract_z
_atom_site_B_iso_or_equiv
_atom_site_occupancy
_atom_site_attached_hydrogens
Hg1 Hg2+ 2 a 0 0 0 0.031(1) 1. 0
Fe1 Fe2+ 2 d 0 0.5 0.75 0.032(1) 1. 0
S1 S2- 8 g 0.1276(2) 0.1504(2) 0.3018(6) 0.034(1) 1. 0
C1 C4+ 8 g 0.0818(8) 0.2713(8) 0.1155(28) 0.031(2) 1. 0
N1 N3- 8 g 0.0504(8) 0.3572(6) -.0018(66) 0.040(2) 1. 0
