
#(C) 2017 by FIZ Karlsruhe - Leibniz Institute for Information Infrastructure.  All rights reserved.
data_88063-ICSD
_database_code_ICSD 88063
_audit_creation_date 2001-07-16
_chemical_name_systematic 'Yttrium ruthenium silicide (1/1/1)'
_chemical_formula_structural 'Y Ru Si'
_chemical_formula_sum 'Ru1 Si1 Y1'
_chemical_name_structure_type TiNiSi-MgSrSi
_exptl_crystal_density_diffrn 6.86
_publ_section_title

;
Crystallographic data of new ternary (Co2 Si)-type R T Si (R = Y, Tb-Tm, T =
Mn, Ru) compounds
;
loop_
_citation_id
_citation_journal_full
_citation_year
_citation_journal_volume
_citation_page_first
_citation_page_last
_citation_journal_id_ASTM
primary 'Journal of Alloys and Compounds' 1999 282 4 5 JALCEU
loop_
_publ_author_name
'Morozkin, A.V.'
'Seropegin, Yu.D.'
'Sviridov, I.A.'
'Riabinkin, I.G.'
_cell_length_a 6.939(1)
_cell_length_b 4.258(1)
_cell_length_c 7.144(1)
_cell_angle_alpha 90.
_cell_angle_beta 90.
_cell_angle_gamma 90.
_cell_volume 211.08
_cell_formula_units_Z 4
_symmetry_space_group_name_H-M 'P n m a'
_symmetry_Int_Tables_number 62
_refine_ls_R_factor_all 0.119
loop_
_symmetry_equiv_pos_site_id
_symmetry_equiv_pos_as_xyz
1 'x+1/2, y, -z+1/2'
2 'x, -y+1/2, z'
3 '-x+1/2, y+1/2, z+1/2'
4 '-x, -y, -z'
5 '-x+1/2, -y, z+1/2'
6 '-x, y+1/2, -z'
7 'x+1/2, -y+1/2, -z+1/2'
8 'x, y, z'
loop_
_atom_type_symbol
_atom_type_oxidation_number
Y0+ 0
Ru0+ 0
Si0+ 0
loop_
_atom_site_label
_atom_site_type_symbol
_atom_site_symmetry_multiplicity
_atom_site_Wyckoff_symbol
_atom_site_fract_x
_atom_site_fract_y
_atom_site_fract_z
_atom_site_B_iso_or_equiv
_atom_site_occupancy
_atom_site_attached_hydrogens
Y1 Y0+ 4 c 0.494(4) 0.25 0.305(5) . 1. 0
Ru1 Ru0+ 4 c 0.169(5) 0.25 0.559(4) . 1. 0
Si1 Si0+ 4 c 0.77(1) 0.25 0.59(1) . 1. 0
#End of TTdata_88063-ICSD