
#(C) 2017 by FIZ Karlsruhe - Leibniz Institute for Information Infrastructure.  All rights reserved.
data_88105-ICSD
_database_code_ICSD 88105
_audit_creation_date 2001-07-16
_chemical_name_systematic 'Yttrium germanide (3/4)'
_chemical_formula_structural 'Y3 Ge4'
_chemical_formula_sum 'Ge4 Y3'
_chemical_name_structure_type Er3Ge4
_exptl_crystal_density_diffrn 6.01
_publ_section_title 'Single crystal X-ray analysis of Y Gex compounds (1<x<3)'
loop_
_citation_id
_citation_journal_full
_citation_year
_citation_journal_volume
_citation_page_first
_citation_page_last
_citation_journal_id_ASTM
primary 'Journal of Alloys and Compounds' 1999 284 237 242 JALCEU
loop_
_publ_author_name
'Ijjaali, I.'
'Venturini, G.'
'Malaman, B.'
_cell_length_a 4.0562(7)
_cell_length_b 10.655(2)
_cell_length_c 14.252(3)
_cell_angle_alpha 90.
_cell_angle_beta 90.
_cell_angle_gamma 90.
_cell_volume 615.95
_cell_formula_units_Z 4
_symmetry_space_group_name_H-M 'C m c m'
_symmetry_Int_Tables_number 63
_refine_ls_R_factor_all 0.044
loop_
_symmetry_equiv_pos_site_id
_symmetry_equiv_pos_as_xyz
1 '-x, y, -z+1/2'
2 '-x, -y, z+1/2'
3 '-x, y, z'
4 '-x, -y, -z'
5 'x, -y, z+1/2'
6 'x, y, -z+1/2'
7 'x, -y, -z'
8 'x, y, z'
9 '-x+1/2, y+1/2, -z+1/2'
10 '-x+1/2, -y+1/2, z+1/2'
11 '-x+1/2, y+1/2, z'
12 '-x+1/2, -y+1/2, -z'
13 'x+1/2, -y+1/2, z+1/2'
14 'x+1/2, y+1/2, -z+1/2'
15 'x+1/2, -y+1/2, -z'
16 'x+1/2, y+1/2, z'
loop_
_atom_type_symbol
_atom_type_oxidation_number
Y0+ 0
Ge0+ 0
loop_
_atom_site_label
_atom_site_type_symbol
_atom_site_symmetry_multiplicity
_atom_site_Wyckoff_symbol
_atom_site_fract_x
_atom_site_fract_y
_atom_site_fract_z
_atom_site_B_iso_or_equiv
_atom_site_occupancy
_atom_site_attached_hydrogens
Y1 Y0+ 8 f 0 0.3312(2) 0.0971(1) . 1. 0
Y2 Y0+ 4 c 0 0.0455(2) 0.25 . 1. 0
Ge1 Ge0+ 8 f 0 0.3796(2) 0.8915(1) . 1. 0
Ge2 Ge0+ 4 a 0 0 0 . 1. 0
Ge3 Ge0+ 4 c 0 0.7737(3) 0.25 . 1. 0
loop_
_atom_site_aniso_label
_atom_site_aniso_type_symbol
_atom_site_aniso_U_11
_atom_site_aniso_U_22
_atom_site_aniso_U_33
_atom_site_aniso_U_12
_atom_site_aniso_U_13
_atom_site_aniso_U_23
Y1 Y0+ 0.0060(8) 0.0076(8) 0.0089(9) 0 0 -.0005(6)
Y2 Y0+ 0.004(1) 0.003(1) 0.014(1) 0 0 0
Ge1 Ge0+ 0.011(1) 0.006(1) 0.009(1) 0 0 0.0003(8)
Ge2 Ge0+ 0.003(1) 0.044(2) 0.066(3) 0 0 0.049(2)
Ge3 Ge0+ 0.010(1) 0.002(1) 0.011(2) 0 0 0
#End of TTdata_88105-ICSD