
#(C) 2017 by FIZ Karlsruhe - Leibniz Institute for Information Infrastructure.  All rights reserved.
data_88387-ICSD
_database_code_ICSD 88387
_audit_creation_date 2001-07-16
_chemical_name_systematic 'Cadmium vanadate(IV)'
_chemical_formula_structural 'Cd (V O3)'
_chemical_formula_sum 'Cd1 O3 V1'
_chemical_name_structure_type NaVO3
_exptl_crystal_density_diffrn 5.24
_cell_measurement_temperature 296.
_publ_section_title 'S=1/2 zigzag-chain structure and ferromagnetism of Cd V O3'
loop_
_citation_id
_citation_journal_full
_citation_year
_citation_journal_volume
_citation_page_first
_citation_page_last
_citation_journal_id_ASTM
primary 'Journal of Physics: Condensed Matter' 1999 11 749 757 JCOMEL
loop_
_publ_author_name
'Onoda, M.'
'Nishiguchi, N.'
_cell_length_a 14.301(1)
_cell_length_b 3.598(1)
_cell_length_c 5.204(1)
_cell_angle_alpha 90.
_cell_angle_beta 90.
_cell_angle_gamma 90.
_cell_volume 267.77
_cell_formula_units_Z 4
_symmetry_space_group_name_H-M 'P n m a'
_symmetry_Int_Tables_number 62
_refine_ls_R_factor_all 0.027
loop_
_symmetry_equiv_pos_site_id
_symmetry_equiv_pos_as_xyz
1 'x+1/2, y, -z+1/2'
2 'x, -y+1/2, z'
3 '-x+1/2, y+1/2, z+1/2'
4 '-x, -y, -z'
5 '-x+1/2, -y, z+1/2'
6 '-x, y+1/2, -z'
7 'x+1/2, -y+1/2, -z+1/2'
8 'x, y, z'
loop_
_atom_type_symbol
_atom_type_oxidation_number
Cd2+ 2
V4+ 4
O2- -2
loop_
_atom_site_label
_atom_site_type_symbol
_atom_site_symmetry_multiplicity
_atom_site_Wyckoff_symbol
_atom_site_fract_x
_atom_site_fract_y
_atom_site_fract_z
_atom_site_B_iso_or_equiv
_atom_site_occupancy
_atom_site_attached_hydrogens
Cd1 Cd2+ 4 c 0.31842(3) 0.25 0.13832(8) . 1. 0
V1 V4+ 4 c 0.08058(6) 0.25 0.0826(2) . 1. 0
O1 O2- 4 c 0.1096(3) 0.25 0.3930(8) . 1. 0
O2 O2- 4 c -.0579(3) 0.25 0.0421(8) . 1. 0
O3 O2- 4 c 0.1941(2) 0.25 0.8936(7) . 1. 0
loop_
_atom_site_aniso_label
_atom_site_aniso_type_symbol
_atom_site_aniso_U_11
_atom_site_aniso_U_22
_atom_site_aniso_U_33
_atom_site_aniso_U_12
_atom_site_aniso_U_13
_atom_site_aniso_U_23
Cd1 Cd2+ 0.0132(1) 0.0105(1) 0.0109(1) 0 -.0025(1) 0
V1 V4+ 0.0083(3) 0.0081(3) 0.0084(3) 0 -.0005(2) 0
O1 O2- 0.019(2) 0.020(2) 0.011(2) 0 -.001(1) 0
O2 O2- 0.012(1) 0.008(1) 0.014(2) 0 -.001(1) 0
O3 O2- 0.007(1) 0.011(1) 0.011(1) 0 -.001(1) 0
#End of TTdata_88387-ICSD