
#(C) 2017 by FIZ Karlsruhe - Leibniz Institute for Information Infrastructure.  All rights reserved.
data_88722-ICSD
_database_code_ICSD 88722
_audit_creation_date 2001-07-16
_audit_update_record 2006-10-01
_chemical_name_systematic 'Cobalt(IV) oxide - B'
_chemical_formula_structural 'Co O2'
_chemical_formula_sum 'Co1 O2'
_chemical_name_structure_type CdI2
_exptl_crystal_density_diffrn 5.17
_publ_section_title

;
In situ structural and electrochemical study of Ni1-x Cox O2 metastable oxides
prepared by soft chemistry
;
loop_
_citation_id
_citation_journal_full
_citation_year
_citation_journal_volume
_citation_page_first
_citation_page_last
_citation_journal_id_ASTM
primary 'Journal of Solid State Chemistry' 1999 147 410 420 JSSCBI
loop_
_publ_author_name
'Tarascon, J.M.'
'Vaughan, G.'
'Chabre, Y.'
'Seguin, L.'
'Anne, M.'
'Strobel, P.'
'Amatucci, G.'
_cell_length_a 2.8208(1)
_cell_length_b 2.8208(1)
_cell_length_c 4.2403(3)
_cell_angle_alpha 90.
_cell_angle_beta 90.
_cell_angle_gamma 120.
_cell_volume 29.22
_cell_formula_units_Z 1
_symmetry_space_group_name_H-M 'P -3 m 1'
_symmetry_Int_Tables_number 164
_refine_ls_R_factor_all 0.095
loop_
_symmetry_equiv_pos_site_id
_symmetry_equiv_pos_as_xyz
1 'x-y, -y, -z'
2 '-x, -x+y, -z'
3 'y, x, -z'
4 'x-y, x, -z'
5 'y, -x+y, -z'
6 '-x, -y, -z'
7 '-x+y, y, z'
8 'x, x-y, z'
9 '-y, -x, z'
10 '-x+y, -x, z'
11 '-y, x-y, z'
12 'x, y, z'
loop_
_atom_type_symbol
_atom_type_oxidation_number
Co4+ 4
O2- -2
loop_
_atom_site_label
_atom_site_type_symbol
_atom_site_symmetry_multiplicity
_atom_site_Wyckoff_symbol
_atom_site_fract_x
_atom_site_fract_y
_atom_site_fract_z
_atom_site_B_iso_or_equiv
_atom_site_occupancy
_atom_site_attached_hydrogens
Co1 Co4+ 1 a 0 0 0 0.45(4) 1. 0
O1 O2- 2 d 0.3333 0.6667 0.20(3) 0.70(7) 1. 0
#End of TTdata_88722-ICSD