
data_89288-ICSD
_database_code_ICSD 89288
_audit_creation_date 2001-07-16
_audit_update_record 2008-08-01
_chemical_name_systematic 'Silicon oxide - beta'
_chemical_formula_structural 'Si O2'
_chemical_formula_sum 'O2 Si1'
_chemical_name_structure_type Quartz,high
_chemical_name_mineral 'Quartz high'
_exptl_crystal_density_diffrn 2.54
_cell_measurement_temperature 891.
_cell_length_a 4.9972(7)
_cell_length_b 4.9972(7)
_cell_length_c 5.4569(11)
_cell_angle_alpha 90.
_cell_angle_beta 90.
_cell_angle_gamma 120.
_cell_volume 118.01
_cell_formula_units_Z 3
_symmetry_space_group_name_H-M 'P 62 2 2'
_symmetry_Int_Tables_number 180
_refine_ls_R_factor_all 0.024
loop_
_symmetry_equiv_pos_site_id
_symmetry_equiv_pos_as_xyz
1 'x, x-y, -z+1/3'
2 '-x+y, y, -z'
3 '-y, -x, -z+2/3'
4 '-x, -x+y, -z+1/3'
5 'x-y, -y, -z'
6 'y, x, -z+2/3'
7 'x-y, x, z+1/3'
8 'y, -x+y, z+2/3'
9 '-x, -y, z'
10 '-x+y, -x, z+1/3'
11 '-y, x-y, z+2/3'
12 'x, y, z'
loop_
_atom_type_symbol
_atom_type_oxidation_number
Si4+ 4
O2- -2
loop_
_atom_site_label
_atom_site_type_symbol
_atom_site_symmetry_multiplicity
_atom_site_Wyckoff_symbol
_atom_site_fract_x
_atom_site_fract_y
_atom_site_fract_z
_atom_site_B_iso_or_equiv
_atom_site_occupancy
_atom_site_attached_hydrogens
Si1 Si4+ 3 c 0.5 0 0 . 1. 0
O1 O2- 6 j 0.4154(9) 0.2077(5) 0.1667 . 1. 0
loop_
_atom_site_aniso_label
_atom_site_aniso_type_symbol
_atom_site_aniso_beta_11
_atom_site_aniso_beta_22
_atom_site_aniso_beta_33
_atom_site_aniso_beta_12
_atom_site_aniso_beta_13
_atom_site_aniso_beta_23
Si1 Si4+ 0.0279(5) 0.0222(6) 0.0135(3) 0.0111(3) 0 0
O1 O2- 0.0554(18) 0.0578(15) 0.0388(7) 0.0289(8) -.0129(6) -.0259(11)
