
data_89452-ICSD
_database_code_ICSD 89452
_audit_creation_date 2002-04-01
_audit_update_record 2007-08-01
_chemical_name_systematic 'Octacopper(I) germanium sulfide'
_chemical_formula_structural 'Cu8 Ge S6'
_chemical_formula_sum 'Cu8 Ge1 S6'
_chemical_name_structure_type Ag8GeS6
_exptl_crystal_density_diffrn 5.3
_cell_measurement_temperature 300.
_cell_length_a 7.0445(3)
_cell_length_b 6.9661(3)
_cell_length_c 9.8699(5)
_cell_angle_alpha 90.
_cell_angle_beta 90.
_cell_angle_gamma 90.
_cell_volume 484.34
_cell_formula_units_Z 2
_symmetry_space_group_name_H-M 'P m n 21'
_symmetry_Int_Tables_number 31
loop_
_symmetry_equiv_pos_site_id
_symmetry_equiv_pos_as_xyz
1 'x+1/2, -y, z+1/2'
2 '-x+1/2, -y, z+1/2'
3 '-x, y, z'
4 'x, y, z'
loop_
_atom_type_symbol
_atom_type_oxidation_number
Ge4+ 4
S2- -2
Cu1+ 1
loop_
_atom_site_label
_atom_site_type_symbol
_atom_site_symmetry_multiplicity
_atom_site_Wyckoff_symbol
_atom_site_fract_x
_atom_site_fract_y
_atom_site_fract_z
_atom_site_B_iso_or_equiv
_atom_site_occupancy
_atom_site_attached_hydrogens
Ge1 Ge4+ 2 a 0 0.247(2) 0.508(6) 0.7 1. 0
S1 S2- 4 b 0.234(3) 0.758(3) 0.882(6) 0.7 1. 0
S2 S2- 2 a 0 -.002(5) 0.653(7) 0.7 1. 0
S3 S2- 2 a 0 0.508(5) 0.638(6) 0.7 1. 0
S4 S2- 2 a 0 0.780(4) 0.252(8) 0.7 1. 0
S5 S2- 2 a 0 0.271(4) 0 0.7 1. 0
Cu1 Cu1+ 4 b 0.216(2) 0.520(3) 0.259(6) 4.6(2) 1. 0
Cu2 Cu1+ 4 b 0.198(2) 0.103(2) 0.847(6) 4.6(2) 1. 0
Cu3 Cu1+ 4 b 0.198(2) 0.146(2) 0.153(6) 4.6(2) 1. 0
Cu4 Cu1+ 2 a 0 0.601(3) 0.021(6) 4.6(2) 1. 0
Cu5 Cu1+ 2 a 0 0.735(2) 0.478(7) 4.6(2) 1. 0
