
#(C) 2017 by FIZ Karlsruhe - Leibniz Institute for Information Infrastructure.  All rights reserved.
data_90084-ICSD
_database_code_ICSD 90084
_audit_creation_date 2002-04-01
_audit_update_record 2012-02-01
_chemical_name_systematic 'Dimercury(I) molybdate - alpha'
_chemical_formula_structural 'Hg2 (Mo O4)'
_chemical_formula_sum 'Hg2 Mo1 O4'
_chemical_name_structure_type Hg2MoO4
_exptl_crystal_density_diffrn 8.28
_cell_measurement_temperature 294.
_publ_section_title

;
Mercury(I) molybdates and tungstates: Hg2 W O4 and two modifications of Hg2 Mo
O4
;
loop_
_citation_id
_citation_journal_full
_citation_year
_citation_journal_volume
_citation_page_first
_citation_page_last
_citation_journal_id_ASTM
primary 'Inorganic Chemistry' 2000 39 4219 4223 INOCAJ
loop_
_publ_author_name
'Mormann, T.J.'
'Jeitschko, W.'
_cell_length_a 8.7352(6)
_cell_length_b 11.5519(7)
_cell_length_c 4.9305(3)
_cell_angle_alpha 90.
_cell_angle_beta 115.196(5)
_cell_angle_gamma 90.
_cell_volume 450.19
_cell_formula_units_Z 4
_symmetry_space_group_name_H-M 'C 1 2/c 1'
_symmetry_Int_Tables_number 15
_refine_ls_R_factor_all 0.024
loop_
_symmetry_equiv_pos_site_id
_symmetry_equiv_pos_as_xyz
1 'x, -y, z+1/2'
2 '-x, -y, -z'
3 '-x, y, -z+1/2'
4 'x, y, z'
5 'x+1/2, -y+1/2, z+1/2'
6 '-x+1/2, -y+1/2, -z'
7 '-x+1/2, y+1/2, -z+1/2'
8 'x+1/2, y+1/2, z'
loop_
_atom_type_symbol
_atom_type_oxidation_number
Hg1+ 1
Mo6+ 6
O2- -2
loop_
_atom_site_label
_atom_site_type_symbol
_atom_site_symmetry_multiplicity
_atom_site_Wyckoff_symbol
_atom_site_fract_x
_atom_site_fract_y
_atom_site_fract_z
_atom_site_B_iso_or_equiv
_atom_site_occupancy
_atom_site_attached_hydrogens
Hg1 Hg1+ 8 f 0.35870(5) 0.10714(3) 0.02189(8) . 1. 0
Mo1 Mo6+ 4 e 0 0.10025(10) 0.25 . 1. 0
O1 O2- 8 f 0.1339(8) 0.0492(5) 0.6485(13) . 1. 0
O2 O2- 8 f 0.1416(8) 0.1938(6) 0.2010(15) . 1. 0
loop_
_atom_site_aniso_label
_atom_site_aniso_type_symbol
_atom_site_aniso_U_11
_atom_site_aniso_U_22
_atom_site_aniso_U_33
_atom_site_aniso_U_12
_atom_site_aniso_U_13
_atom_site_aniso_U_23
Hg1 Hg1+ 0.0098(2) 0.0196(2) 0.0126(2) -.0015(2) -.0009(1) 0.0003(2)
Mo1 Mo6+ 0.0084(4) 0.0086(4) 0.0071(5) 0 0.0024(3) 0
O1 O2- 0.0109(29) 0.0169(32) 0.0032(25) -.0060(25) 0.0007(23) 0.0023(23)
O2 O2- 0.0139(32) 0.0138(32) 0.0193(33) -.0045(26) 0.0057(27) 0.0014(26)
#End of TTdata_90084-ICSD