
data_90082-ICSD
_database_code_ICSD 90082
_audit_creation_date 2002-04-01
_chemical_name_systematic 'Scandium nickel telluride (6/1/2)'
_chemical_formula_structural 'Sc6 Ni Te2'
_chemical_formula_sum 'Ni1 Sc6 Te2'
_chemical_name_structure_type ZrNiAl-Fe2P
_exptl_crystal_density_diffrn 4.98
_cell_measurement_temperature 296.
_cell_length_a 7.7235(4)
_cell_length_b 7.7235(4)
_cell_length_c 3.7656(3)
_cell_angle_alpha 90.
_cell_angle_beta 90.
_cell_angle_gamma 120.
_cell_volume 194.53
_cell_formula_units_Z 1
_symmetry_space_group_name_H-M 'P -6 2 m'
_symmetry_Int_Tables_number 189
_refine_ls_R_factor_all 0.031
loop_
_symmetry_equiv_pos_site_id
_symmetry_equiv_pos_as_xyz
1 '-x, -x+y, -z'
2 'x-y, -y, -z'
3 'y, x, -z'
4 '-x, -x+y, z'
5 'x-y, -y, z'
6 'y, x, z'
7 '-x+y, -x, -z'
8 '-y, x-y, -z'
9 'x, y, -z'
10 '-x+y, -x, z'
11 '-y, x-y, z'
12 'x, y, z'
loop_
_atom_type_symbol
_atom_type_oxidation_number
Sc0+ 0
Ni0+ 0
Te0+ 0
loop_
_atom_site_label
_atom_site_type_symbol
_atom_site_symmetry_multiplicity
_atom_site_Wyckoff_symbol
_atom_site_fract_x
_atom_site_fract_y
_atom_site_fract_z
_atom_site_B_iso_or_equiv
_atom_site_occupancy
_atom_site_attached_hydrogens
Sc1 Sc0+ 3 g 0.2393(3) 0 0.5 . 1. 0
Sc2 Sc0+ 3 f 0.6075(4) 0 0 . 1. 0
Ni1 Ni0+ 1 a 0 0 0 . 1. 0
Te1 Te0+ 2 d 0.3333 0.6667 0.5 . 1. 0
loop_
_atom_site_aniso_label
_atom_site_aniso_type_symbol
_atom_site_aniso_U_11
_atom_site_aniso_U_22
_atom_site_aniso_U_33
_atom_site_aniso_U_12
_atom_site_aniso_U_13
_atom_site_aniso_U_23
Sc1 Sc0+ 0.009(1) 0.009(1) 0.013(1) 0 0 0
Sc2 Sc0+ 0.009(1) 0.009(1) 0.008(1) 0 0 0
Ni1 Ni0+ 0.020(1) 0.020(1) 0.008(1) 0 0 0
Te1 Te0+ 0.0081(5) 0.0081(5) 0.0067(6) 0 0 0
