
#(C) 2017 by FIZ Karlsruhe - Leibniz Institute for Information Infrastructure.  All rights reserved.
data_90085-ICSD
_database_code_ICSD 90085
_audit_creation_date 2002-04-01
_chemical_name_systematic 'Dimercury(I) tungstate'
_chemical_formula_structural 'Hg2 (W O4)'
_chemical_formula_sum 'Hg2 O4 W1'
_chemical_name_structure_type Hg2MoO4
_exptl_crystal_density_diffrn 9.61
_cell_measurement_temperature 294.
_publ_section_title

;
Mercury(I) molybdates and tungstates: Hg2 W O4 and two modifications of Hg2 Mo
O4
;
loop_
_citation_id
_citation_journal_full
_citation_year
_citation_journal_volume
_citation_page_first
_citation_page_last
_citation_journal_id_ASTM
primary 'Inorganic Chemistry' 2000 39 4219 4223 INOCAJ
loop_
_publ_author_name
'Mormann, T.J.'
'Jeitschko, W.'
_cell_length_a 8.730(1)
_cell_length_b 11.476(3)
_cell_length_c 4.9324(3)
_cell_angle_alpha 90.
_cell_angle_beta 114.86(1)
_cell_angle_gamma 90.
_cell_volume 448.37
_cell_formula_units_Z 4
_symmetry_space_group_name_H-M 'C 1 2/c 1'
_symmetry_Int_Tables_number 15
_refine_ls_R_factor_all 0.033
loop_
_symmetry_equiv_pos_site_id
_symmetry_equiv_pos_as_xyz
1 'x, -y, z+1/2'
2 '-x, -y, -z'
3 '-x, y, -z+1/2'
4 'x, y, z'
5 'x+1/2, -y+1/2, z+1/2'
6 '-x+1/2, -y+1/2, -z'
7 '-x+1/2, y+1/2, -z+1/2'
8 'x+1/2, y+1/2, z'
loop_
_atom_type_symbol
_atom_type_oxidation_number
Hg1+ 1
W6+ 6
O2- -2
loop_
_atom_site_label
_atom_site_type_symbol
_atom_site_symmetry_multiplicity
_atom_site_Wyckoff_symbol
_atom_site_fract_x
_atom_site_fract_y
_atom_site_fract_z
_atom_site_B_iso_or_equiv
_atom_site_occupancy
_atom_site_attached_hydrogens
Hg1 Hg1+ 8 f 0.35978(6) 0.10923(5) 0.02230(11) . 1. 0
W1 W6+ 4 e 0 0.09832(6) 0.25 . 1. 0
O1 O2- 8 f 0.1339(10) 0.0502(8) 0.655(2) . 1. 0
O2 O2- 8 f 0.1424(11) 0.1940(8) 0.202(2) . 1. 0
loop_
_atom_site_aniso_label
_atom_site_aniso_type_symbol
_atom_site_aniso_U_11
_atom_site_aniso_U_22
_atom_site_aniso_U_33
_atom_site_aniso_U_12
_atom_site_aniso_U_13
_atom_site_aniso_U_23
Hg1 Hg1+ 0.0090(2) 0.0190(3) 0.0131(2) -.0015(2) -.0011(2) 0.0008(2)
W1 W6+ 0.0078(3) 0.0071(3) 0.0063(3) 0 0.0019(2) 0
O1 O2- 0.0084(38) 0.0100(41) 0.0119(40) -.0044(30) 0.0045(33) -.0021(32)
O2 O2- 0.0123(40) 0.0165(46) 0.0182(43) -.0050(36) 0.0065(35) -.0036(38)
#End of TTdata_90085-ICSD