
#(C) 2017 by FIZ Karlsruhe - Leibniz Institute for Information Infrastructure.  All rights reserved.
data_90278-ICSD
_database_code_ICSD 90278
_audit_creation_date 2002-04-01
_chemical_name_systematic 'Hafnium platinum silicide (1/1/1)'
_chemical_formula_structural 'Hf Pt Si'
_chemical_formula_sum 'Hf1 Pt1 Si1'
_chemical_name_structure_type TiNiSi-MgSrSi
_exptl_crystal_density_diffrn 13.98
_publ_section_title

;
Magnetism and transport properties of Hf M Si (M = Pt, Pd) and Hf Rh1-x Pdx Si
;
loop_
_citation_id
_citation_journal_full
_citation_year
_citation_journal_volume
_citation_page_first
_citation_page_last
_citation_journal_id_ASTM
primary 'Journal of Alloys and Compounds' 2000 298 51 58 JALCEU
loop_
_publ_author_name
'Yashiro, S.'
'Nagata, Y.'
'Samata, H.'
'Abe, S.'
_cell_length_a 6.549
_cell_length_b 3.883
_cell_length_c 7.506
_cell_angle_alpha 90.
_cell_angle_beta 90.
_cell_angle_gamma 90.
_cell_volume 190.88
_cell_formula_units_Z 4
_symmetry_space_group_name_H-M 'P n m a'
_symmetry_Int_Tables_number 62
loop_
_symmetry_equiv_pos_site_id
_symmetry_equiv_pos_as_xyz
1 'x+1/2, y, -z+1/2'
2 'x, -y+1/2, z'
3 '-x+1/2, y+1/2, z+1/2'
4 '-x, -y, -z'
5 '-x+1/2, -y, z+1/2'
6 '-x, y+1/2, -z'
7 'x+1/2, -y+1/2, -z+1/2'
8 'x, y, z'
loop_
_atom_type_symbol
_atom_type_oxidation_number
Hf0+ 0
Pt0+ 0
Si0+ 0
loop_
_atom_site_label
_atom_site_type_symbol
_atom_site_symmetry_multiplicity
_atom_site_Wyckoff_symbol
_atom_site_fract_x
_atom_site_fract_y
_atom_site_fract_z
_atom_site_B_iso_or_equiv
_atom_site_occupancy
_atom_site_attached_hydrogens
Hf1 Hf0+ 4 c 0.0257 0.25 0.1779 . 1. 0
Pt1 Pt0+ 4 c 0.1448 0.25 0.5631 . 1. 0
Si1 Si0+ 4 c 0.7573 0.25 0.6223 . 1. 0
#End of TTdata_90278-ICSD