
data_90733-ICSD
_database_code_ICSD 90733
_audit_creation_date 2002-04-01
_audit_update_record 2007-04-01
_chemical_name_systematic 'Tellurium oxide - gamma'
_chemical_formula_structural 'Te O2'
_chemical_formula_sum 'O2 Te1'
_chemical_name_structure_type SnF2
_exptl_crystal_density_diffrn 5.8
_cell_length_a 4.898(3)
_cell_length_b 8.576(4)
_cell_length_c 4.351(2)
_cell_angle_alpha 90.
_cell_angle_beta 90.
_cell_angle_gamma 90.
_cell_volume 182.76
_cell_formula_units_Z 4
_symmetry_space_group_name_H-M 'P 21 21 21'
_symmetry_Int_Tables_number 19
_refine_ls_R_factor_all 0.039
loop_
_symmetry_equiv_pos_site_id
_symmetry_equiv_pos_as_xyz
1 '-x, y+1/2, -z+1/2'
2 'x+1/2, -y+1/2, -z'
3 '-x+1/2, -y, z+1/2'
4 'x, y, z'
loop_
_atom_type_symbol
_atom_type_oxidation_number
Te4+ 4
O2- -2
loop_
_atom_site_label
_atom_site_type_symbol
_atom_site_symmetry_multiplicity
_atom_site_Wyckoff_symbol
_atom_site_fract_x
_atom_site_fract_y
_atom_site_fract_z
_atom_site_B_iso_or_equiv
_atom_site_occupancy
_atom_site_attached_hydrogens
Te1 Te4+ 4 a 0.9696(4) 0.1016(2) 0.1358(4) 0.17(3) 1. 0
O1 O2- 4 a 0.759(3) 0.281(2) 0.173(4) 4.0(4) 1. 0
O2 O2- 4 a 0.855(3) 0.036(2) 0.727(3) 4.3(4) 1. 0
