
#(C) 2017 by FIZ Karlsruhe - Leibniz Institute for Information Infrastructure.  All rights reserved.
data_91244-ICSD
_database_code_ICSD 91244
_audit_creation_date 2002-10-01
_chemical_name_systematic 'Scandium osmium boride (1/3/4)'
_chemical_formula_structural 'Sc Os3 B4'
_chemical_formula_sum 'B4 Os3 Sc1'
_chemical_name_structure_type MgOs3B4
_exptl_crystal_density_diffrn 12.8
_publ_section_title
'Mg Os3 B4 and Sc Os3 B4, ternary borides with a new channel structure'
loop_
_citation_id
_citation_journal_full
_citation_year
_citation_journal_volume
_citation_page_first
_citation_page_last
_citation_journal_id_ASTM
primary 'Journal of Solid State Chemistry' 2000 154 232 237 JSSCBI
loop_
_publ_author_name
'Schiffer, J.'
'Jung, W.'
_cell_length_a 2.9503(4)
_cell_length_b 11.797(2)
_cell_length_c 9.819(1)
_cell_angle_alpha 90.
_cell_angle_beta 90.
_cell_angle_gamma 90.
_cell_volume 341.75
_cell_formula_units_Z 4
_symmetry_space_group_name_H-M 'C m c m'
_symmetry_Int_Tables_number 63
_refine_ls_R_factor_all 0.054
loop_
_symmetry_equiv_pos_site_id
_symmetry_equiv_pos_as_xyz
1 '-x, y, -z+1/2'
2 '-x, -y, z+1/2'
3 '-x, y, z'
4 '-x, -y, -z'
5 'x, -y, z+1/2'
6 'x, y, -z+1/2'
7 'x, -y, -z'
8 'x, y, z'
9 '-x+1/2, y+1/2, -z+1/2'
10 '-x+1/2, -y+1/2, z+1/2'
11 '-x+1/2, y+1/2, z'
12 '-x+1/2, -y+1/2, -z'
13 'x+1/2, -y+1/2, z+1/2'
14 'x+1/2, y+1/2, -z+1/2'
15 'x+1/2, -y+1/2, -z'
16 'x+1/2, y+1/2, z'
loop_
_atom_type_symbol
_atom_type_oxidation_number
Os0+ 0
Sc0+ 0
B0+ 0
loop_
_atom_site_label
_atom_site_type_symbol
_atom_site_symmetry_multiplicity
_atom_site_Wyckoff_symbol
_atom_site_fract_x
_atom_site_fract_y
_atom_site_fract_z
_atom_site_B_iso_or_equiv
_atom_site_occupancy
_atom_site_attached_hydrogens
Os1 Os0+ 8 f 0 0.2014(1) 0.6082(1) . 1. 0
Os2 Os0+ 4 c 0 0.0106(1) 0.25 . 1. 0
Sc1 Sc0+ 4 b 0 0.5 0 . 1. 0
B1 B0+ 8 f 0 0.153(3) 0.108(3) 0.0113(46) 1. 0
B2 B0+ 4 c 0 0.646(3) 0.25 0.0084(42) 1. 0
B3 B0+ 4 c 0 0.368(4) 0.25 0.0135(42) 1. 0
loop_
_atom_site_aniso_label
_atom_site_aniso_type_symbol
_atom_site_aniso_U_11
_atom_site_aniso_U_22
_atom_site_aniso_U_33
_atom_site_aniso_U_12
_atom_site_aniso_U_13
_atom_site_aniso_U_23
Os1 Os0+ 0.0047(4) 0.0029(3) 0.0011(3) 0 0 0
Os2 Os0+ 0.0049(3) 0.0032(3) 0.0006(2) 0 0 0
Sc1 Sc0+ 0.0060(2) 0.0050(2) 0.0040(2) 0 0 0.0005(19)
#End of TTdata_91244-ICSD