
#(C) 2017 by FIZ Karlsruhe - Leibniz Institute for Information Infrastructure.  All rights reserved.
data_92317-ICSD
_database_code_ICSD 92317
_audit_creation_date 2002-10-01
_chemical_name_systematic 'Oxovanadium(IV) bis(rhenate(VII))'
_chemical_formula_structural '(V O) (Re O4)2'
_chemical_formula_sum 'O9 Re2 V1'
_exptl_crystal_density_diffrn 5.09
_publ_section_title 'V O (Re O4)2: solid state and structural chemistry'
loop_
_citation_id
_citation_journal_full
_citation_year
_citation_journal_volume
_citation_page_first
_citation_page_last
_citation_journal_id_ASTM
primary 'Solid State Sciences' 2000 2 545 552 SSSCFJ
loop_
_publ_author_name
'Bastide, B.'
'Enjalbert, R.'
'Fuess, H.'
'Galy, J.'
_cell_length_a 5.7110(4)
_cell_length_b 14.699(1)
_cell_length_c 8.8230(4)
_cell_angle_alpha 90.
_cell_angle_beta 90.
_cell_angle_gamma 90.
_cell_volume 740.66
_cell_formula_units_Z 4
_symmetry_space_group_name_H-M 'C m c 21'
_symmetry_Int_Tables_number 36
_refine_ls_R_factor_all 0.038
loop_
_symmetry_equiv_pos_site_id
_symmetry_equiv_pos_as_xyz
1 'x, -y, z+1/2'
2 '-x, -y, z+1/2'
3 '-x, y, z'
4 'x, y, z'
5 'x+1/2, -y+1/2, z+1/2'
6 '-x+1/2, -y+1/2, z+1/2'
7 '-x+1/2, y+1/2, z'
8 'x+1/2, y+1/2, z'
loop_
_atom_type_symbol
_atom_type_oxidation_number
Re7+ 7
V4+ 4
O2- -2
loop_
_atom_site_label
_atom_site_type_symbol
_atom_site_symmetry_multiplicity
_atom_site_Wyckoff_symbol
_atom_site_fract_x
_atom_site_fract_y
_atom_site_fract_z
_atom_site_B_iso_or_equiv
_atom_site_occupancy
_atom_site_attached_hydrogens
Re1 Re7+ 4 a 0 0.22613(5) 0.369 . 1. 0
Re2 Re7+ 4 a 0 0.52285(5) 0.18957(10) . 1. 0
V1 V4+ 4 a 0.5 0.3822(2) 0.2817(5) . 1. 0
O1 O2- 8 b 0.2504(17) 0.2878(8) 0.3259(14) . 1. 0
O2 O2- 4 a 0 0.1919(11) 0.553(2) . 1. 0
O3 O2- 4 a 0 0.1316(14) 0.258(3) . 1. 0
O4 O2- 8 b 0.2471(18) 0.4535(8) 0.1774(14) . 1. 0
O5 O2- 4 a 0 0.6018(10) 0.050(3) . 1. 0
O6 O2- 4 a 0 0.5802(13) 0.357(2) . 1. 0
O7 O2- 4 a 0.5 0.4336(11) 0.4381(19) . 1. 0
loop_
_atom_site_aniso_label
_atom_site_aniso_type_symbol
_atom_site_aniso_U_11
_atom_site_aniso_U_22
_atom_site_aniso_U_33
_atom_site_aniso_U_12
_atom_site_aniso_U_13
_atom_site_aniso_U_23
Re1 Re7+ 0.0175(3) 0.0163(3) 0.0220(4) 0 0 0.0031(2)
Re2 Re7+ 0.0170(3) 0.0165(3) 0.0274(4) 0 0 0.0034(3)
V1 V4+ 0.0163(11) 0.0152(13) 0.0208(13) 0 0 -.0005(10)
O1 O2- 0.019(5) 0.024(4) 0.039(8) -.007(4) 0.001(4) 0.002(4)
O2 O2- 0.040(9) 0.030(7) 0.04(1) 0 0 0.020(8)
O3 O2- 0.037(8) 0.028(8) 0.073(16) 0 0 -.019(9)
O4 O2- 0.028(6) 0.026(4) 0.033(6) 0.006(4) 0.001(5) 0.002(5)
O5 O2- 0.018(7) 0.029(8) 0.062(12) 0 0 0.016(8)
O6 O2- 0.041(9) 0.038(9) 0.043(10) 0 0 0.006(7)
O7 O2- 0.033(8) 0.034(8) 0.027(8) 0 0 -.013(6)
#End of TTdata_92317-ICSD