
#(C) 2017 by FIZ Karlsruhe - Leibniz Institute for Information Infrastructure.  All rights reserved.
data_92440-ICSD
_database_code_ICSD 92440
_audit_creation_date 2002-10-01
_chemical_name_systematic 'Zirconium palladium arsenide'
_chemical_formula_structural 'Zr Pd As'
_chemical_formula_sum 'As1 Pd1 Zr1'
_exptl_crystal_density_diffrn 9.02
_publ_section_title

;
Palladiumpnictide des Zirconiums und Hafniums mit einem
Metall:Nichtmetall-Verhaeltnis von 2:1
;
loop_
_citation_id
_citation_journal_full
_citation_year
_citation_journal_volume
_citation_page_first
_citation_page_last
_citation_journal_id_ASTM
primary 'Zeitschrift fuer Anorganische und Allgemeine Chemie (1950) (DE)' 2000
626 1393 1399 ZAACAB
loop_
_publ_author_name
'Heerdmann, A.'
'Johrendt, D.'
'Mewis, A.'
_cell_length_a 3.887(1)
_cell_length_b 19.2880(60)
_cell_length_c 6.690(2)
_cell_angle_alpha 90.
_cell_angle_beta 90.
_cell_angle_gamma 90.
_cell_volume 501.57
_cell_formula_units_Z 10
_symmetry_space_group_name_H-M 'P m m n Z'
_symmetry_Int_Tables_number 59
_refine_ls_R_factor_all 0.072
loop_
_symmetry_equiv_pos_site_id
_symmetry_equiv_pos_as_xyz
1 'x+1/2, y+1/2, -z'
2 '-x, y+1/2, -z'
3 'x+1/2, -y, -z'
4 '-x, -y, -z'
5 '-x+1/2, -y+1/2, z'
6 'x, -y+1/2, z'
7 '-x+1/2, y, z'
8 'x, y, z'
loop_
_atom_type_symbol
_atom_type_oxidation_number
Zr0+ 0
Pd0+ 0
As0+ 0
loop_
_atom_site_label
_atom_site_type_symbol
_atom_site_symmetry_multiplicity
_atom_site_Wyckoff_symbol
_atom_site_fract_x
_atom_site_fract_y
_atom_site_fract_z
_atom_site_B_iso_or_equiv
_atom_site_occupancy
_atom_site_attached_hydrogens
Zr1 Zr0+ 2 a 0.25 0.25 0.8449(6) 0.0159(8) 1. 0
Zr2 Zr0+ 4 e 0.25 0.0677(1) 0.9614(4) 0.0175(6) 1. 0
Zr3 Zr0+ 4 e 0.25 0.3750(1) 0.4602(4) 0.0086(5) 1. 0
Pd1 Pd0+ 2 b 0.25 0.75 0.4912(4) 0.0107(6) 1. 0
Pd2 Pd0+ 4 e 0.25 0.6727(1) 0.8774(3) 0.0114(4) 1. 0
Pd3 Pd0+ 4 e 0.25 0.9741(1) 0.3635(3) 0.0107(4) 1. 0
As1 As0+ 2 a 0.25 0.25 0.2507(6) 0.0094(7) 1. 0
As2 As0+ 4 e 0.25 0.8496(1) 0.2465(4) 0.0090(5) 1. 0
As3 As0+ 4 e 0.25 0.9503(1) 0.7591(4) 0.0105(6) 1. 0
#End of TTdata_92440-ICSD