
#(C) 2017 by FIZ Karlsruhe - Leibniz Institute for Information Infrastructure.  All rights reserved.
data_92585-ICSD
_database_code_ICSD 92585
_audit_creation_date 2003-04-01
_chemical_name_systematic 'Beryllium iodide - alpha'
_chemical_formula_structural 'Be I2'
_chemical_formula_sum 'Be1 I2'
_chemical_name_structure_type SiS2(Ibam)
_exptl_crystal_density_diffrn 4.24
_cell_measurement_temperature 160.
_publ_section_title
'Crystal modifications of beryllium dihalides Be Cl2, Be Br2 and Be I2'
loop_
_citation_id
_citation_journal_full
_citation_year
_citation_journal_volume
_citation_page_first
_citation_page_last
_citation_journal_id_ASTM
primary 'Zhurnal Neorganicheskoi Khimii' 2000 45 1619 1624 ZNOKAQ
loop_
_publ_author_name
'Troyanov, S.I.'
_cell_length_a 6.025(3)
_cell_length_b 11.316(4)
_cell_length_c 6.035(3)
_cell_angle_alpha 90
_cell_angle_beta 90
_cell_angle_gamma 90
_cell_volume 411.46
_cell_formula_units_Z 4
_symmetry_space_group_name_H-M 'I b a m'
_symmetry_Int_Tables_number 72
_refine_ls_R_factor_all 0.032
loop_
_symmetry_equiv_pos_site_id
_symmetry_equiv_pos_as_xyz
1 '-x, y, z+1/2'
2 'x, -y, z+1/2'
3 'x, y, -z'
4 '-x, -y, -z'
5 'x, -y, -z+1/2'
6 '-x, y, -z+1/2'
7 '-x, -y, z'
8 'x, y, z'
9 '-x+1/2, y+1/2, z'
10 'x+1/2, -y+1/2, z'
11 'x+1/2, y+1/2, -z+1/2'
12 '-x+1/2, -y+1/2, -z+1/2'
13 'x+1/2, -y+1/2, -z'
14 '-x+1/2, y+1/2, -z'
15 '-x+1/2, -y+1/2, z+1/2'
16 'x+1/2, y+1/2, z+1/2'
loop_
_atom_type_symbol
_atom_type_oxidation_number
Be2+ 2
I1- -1
loop_
_atom_site_label
_atom_site_type_symbol
_atom_site_symmetry_multiplicity
_atom_site_Wyckoff_symbol
_atom_site_fract_x
_atom_site_fract_y
_atom_site_fract_z
_atom_site_B_iso_or_equiv
_atom_site_occupancy
_atom_site_attached_hydrogens
Be1 Be2+ 4 a 0 0 0.25 0.019(2) 1. 0
I1 I1- 8 j 0.22131(7) 0.11811(3) 0 0.0213(2) 1. 0
#End of TTdata_92585-ICSD