
#(C) 2017 by FIZ Karlsruhe - Leibniz Institute for Information Infrastructure.  All rights reserved.
data_92839-ICSD
_database_code_ICSD 92839
_audit_creation_date 2003-04-01
_chemical_name_systematic 'Tin dimolybdenum(III) dimolybdenum(II) oxide'
_chemical_formula_structural 'Sn Mo4 O6'
_chemical_formula_sum 'Mo4 O6 Sn1'
_exptl_crystal_density_diffrn 7.61
_publ_section_title

;
Synthesis, characterization, and electronic structure of a new molybdenum
bronze Sn Mo4 O6
;
loop_
_citation_id
_citation_journal_full
_citation_year
_citation_journal_volume
_citation_page_first
_citation_page_last
_citation_journal_id_ASTM
primary 'Chemistry of Materials' 2001 13 1625 1629 CMATEX
loop_
_publ_author_name
'Jung, D.'
'Lee, B.-H.'
'Kim, S.-J.'
'Kang, W.'
_cell_length_a 9.5804(9)
_cell_length_b 9.5804(9)
_cell_length_c 2.8436(4)
_cell_angle_alpha 90
_cell_angle_beta 90
_cell_angle_gamma 90
_cell_volume 261.
_cell_formula_units_Z 2
_symmetry_space_group_name_H-M 'P 4/m b m'
_symmetry_Int_Tables_number 127
_refine_ls_R_factor_all 0.045
loop_
_symmetry_equiv_pos_site_id
_symmetry_equiv_pos_as_xyz
1 'y+1/2, x+1/2, -z'
2 '-y+1/2, -x+1/2, -z'
3 '-y, x, -z'
4 'y, -x, -z'
5 'x+1/2, -y+1/2, -z'
6 '-x+1/2, y+1/2, -z'
7 'x, y, -z'
8 '-x, -y, -z'
9 '-y+1/2, -x+1/2, z'
10 'y+1/2, x+1/2, z'
11 'y, -x, z'
12 '-y, x, z'
13 '-x+1/2, y+1/2, z'
14 'x+1/2, -y+1/2, z'
15 '-x, -y, z'
16 'x, y, z'
loop_
_atom_type_symbol
_atom_type_oxidation_number
Sn2+ 2
Mo2+ 2.5
O2- -2
loop_
_atom_site_label
_atom_site_type_symbol
_atom_site_symmetry_multiplicity
_atom_site_Wyckoff_symbol
_atom_site_fract_x
_atom_site_fract_y
_atom_site_fract_z
_atom_site_B_iso_or_equiv
_atom_site_occupancy
_atom_site_attached_hydrogens
Sn1 Sn2+ 2 a 0 0 0 0.009(1) 1. 0
Mo1 Mo2+ 4 g 0.3979(1) 0.1021(1) 0 0.004(1) 1. 0
Mo2 Mo2+ 4 h 0.6446(1) 0.1446(1) 0.5 0.009(1) 1. 0
O1 O2- 4 h 0.2927(5) 0.2073(5) 0.5 0.007(2) 1. 0
O2 O2- 8 i 0.2359(5) -0.0412(5) 0 0.010(2) 1. 0
loop_
_atom_site_aniso_label
_atom_site_aniso_type_symbol
_atom_site_aniso_U_11
_atom_site_aniso_U_22
_atom_site_aniso_U_33
_atom_site_aniso_U_12
_atom_site_aniso_U_13
_atom_site_aniso_U_23
Sn1 Sn2+ 0.010(1) 0.010(1) 0.007(1) 0. 0. 0.
Mo1 Mo2+ 0.004(1) 0.004(1) 0.004(1) 0.000(1) 0. 0.
Mo2 Mo2+ 0.003(1) 0.003(1) 0.021(1) 0.000(1) 0. 0.
O1 O2- 0.008(2) 0.008(2) 0.007(3) 0.000(3) 0. 0.
O2 O2- 0.008(2) 0.010(3) 0.010(2) -0.003(2) 0. 0.
#End of TTdata_92839-ICSD