
#(C) 2017 by FIZ Karlsruhe - Leibniz Institute for Information Infrastructure.  All rights reserved.
data_93052-ICSD
_database_code_ICSD 93052
_audit_creation_date 2003-04-01
_chemical_name_systematic 'Gold copper trio-triselenide selenide'
_chemical_formula_structural 'Au Cu Se4'
_chemical_formula_sum 'Au1 Cu1 Se4'
_exptl_crystal_density_diffrn 7.36
_cell_measurement_temperature 296.
_publ_section_title
'Au Cu Se4: a mixed polychalcogenide with (Se3)(2-) and Se(2-) anions'
loop_
_citation_id
_citation_journal_full
_citation_year
_citation_journal_volume
_citation_page_first
_citation_page_last
_citation_journal_id_ASTM
primary 'Inorganic Chemistry' 2001 40 5913 5916 INOCAJ
loop_
_publ_author_name
'Park, Y.'
'Kanatzidis, M.G.'
_cell_length_a 4.318(2)
_cell_length_b 7.447(1)
_cell_length_c 8.099(1)
_cell_angle_alpha 90
_cell_angle_beta 93.33(2)
_cell_angle_gamma 90
_cell_volume 259.99
_cell_formula_units_Z 2
_symmetry_space_group_name_H-M 'P 1 21/m 1'
_symmetry_Int_Tables_number 11
_refine_ls_R_factor_all 0.051
loop_
_symmetry_equiv_pos_site_id
_symmetry_equiv_pos_as_xyz
1 'x, -y+1/2, z'
2 '-x, -y, -z'
3 '-x, y+1/2, -z'
4 'x, y, z'
loop_
_atom_type_symbol
_atom_type_oxidation_number
Au3+ 3
Se0+ -0.667
Se2- -2
Cu1+ 1
loop_
_atom_site_label
_atom_site_type_symbol
_atom_site_symmetry_multiplicity
_atom_site_Wyckoff_symbol
_atom_site_fract_x
_atom_site_fract_y
_atom_site_fract_z
_atom_site_B_iso_or_equiv
_atom_site_occupancy
_atom_site_attached_hydrogens
Au1 Au3+ 2 b 0.5 0 0 0.60(3) 1. 0
Se1 Se0+ 4 f 0.4162(3) 0.0013(2) 0.6951(2) 0.80(5) 1. 0
Se2 Se0+ 2 e 0.0742(4) 0.25 0.6384(2) 0.86(6) 1. 0
Se3 Se2- 2 e 0.1445(4) 0.25 0.0623(2) 0.66(6) 1. 0
Cu1 Cu1+ 2 e -0.0248(6) 0.25 0.3423(3) 1.5(1) 1. 0
loop_
_atom_site_aniso_label
_atom_site_aniso_type_symbol
_atom_site_aniso_U_11
_atom_site_aniso_U_22
_atom_site_aniso_U_33
_atom_site_aniso_U_12
_atom_site_aniso_U_13
_atom_site_aniso_U_23
Au1 Au3+ 0.0087(3) 0.0072(4) 0.0069(4) 0.0010(2) 0.0005(2) -0.0003(2)
Se1 Se0+ 0.0133(6) 0.0089(7) 0.0081(6) -0.0010(4) -0.0001(5) -0.0001(4)
Se2 Se0+ 0.0117(8) 0.011(1) 0.0098(8) 0. -0.0024(6) 0.
Se3 Se2- 0.0084(7) 0.0066(8) 0.0103(8) 0. 0.0023(6) 0.
Cu1 Cu1+ 0.025(1) 0.021(1) 0.011(1) 0. 0.0011(9) 0.
#End of TTdata_93052-ICSD