
data_93544-ICSD
_database_code_ICSD 93544
_audit_creation_date 2003-04-01
_audit_update_record 2016-02-01
_chemical_name_systematic 'Silicon carbide nitride (2/1/4)'
_chemical_formula_structural 'Si2 N2 C N2'
_chemical_formula_sum 'C1 N4 Si2'
_exptl_crystal_density_diffrn 2.32
_cell_length_a 5.44
_cell_length_b 13.58
_cell_length_c 4.81
_cell_angle_alpha 90
_cell_angle_beta 90
_cell_angle_gamma 90
_cell_volume 355.34
_cell_formula_units_Z 4
_symmetry_space_group_name_H-M 'A b a 2'
_symmetry_Int_Tables_number 41
_refine_ls_R_factor_all 0.067
loop_
_symmetry_equiv_pos_site_id
_symmetry_equiv_pos_as_xyz
1 'x+1/2, -y+1/2, z'
2 '-x+1/2, y+1/2, z'
3 '-x, -y, z'
4 'x, y, z'
5 'x+1/2, -y, z+1/2'
6 '-x+1/2, y, z+1/2'
7 '-x, -y+1/2, z+1/2'
8 'x, y+1/2, z+1/2'
loop_
_atom_type_symbol
_atom_type_oxidation_number
Si4+ 4
N3- -3
N2- -2
C2+ 2
loop_
_atom_site_label
_atom_site_type_symbol
_atom_site_symmetry_multiplicity
_atom_site_Wyckoff_symbol
_atom_site_fract_x
_atom_site_fract_y
_atom_site_fract_z
_atom_site_B_iso_or_equiv
_atom_site_occupancy
_atom_site_attached_hydrogens
Si1 Si4+ 8 b 0.101 0.197 -0.061 . 1. 0
N1 N3- 8 b -0.093 0.26 0.067 . 1. 0
N2 N2- 8 b 0.029 0.076 0 . 1. 0
C1 C2+ 4 a 0 0 0 . 1. 0
