
#(C) 2017 by FIZ Karlsruhe - Leibniz Institute for Information Infrastructure.  All rights reserved.
data_93701-ICSD
_database_code_ICSD 93701
_audit_creation_date 2003-04-01
_chemical_name_systematic 'Strontium silicide (5/3)'
_chemical_formula_structural 'Sr5 Si3'
_chemical_formula_sum 'Si3 Sr5'
_chemical_name_structure_type Cr5B3
_exptl_crystal_density_diffrn 3.37
_publ_section_title

;
Hydrogen impurity effects, A5 Tt3 intermetallic compounds between A= Ca, Sr,
Ba, Eu and Tt = Si, Ge, Sn with (Cr5 B3)-like structures that are stable both
as binary and as ternary hydride and fluoride phases
;
loop_
_citation_id
_citation_journal_full
_citation_year
_citation_journal_volume
_citation_page_first
_citation_page_last
_citation_journal_id_ASTM
primary 'Journal of Solid State Chemistry' 2001 159 149 162 JSSCBI
loop_
_publ_author_name
'Leon Escamilla, E.A.'
'Corbett, J.D.'
_cell_length_a 8.0966(5)
_cell_length_b 8.0966(5)
_cell_length_c 15.703(2)
_cell_angle_alpha 90
_cell_angle_beta 90
_cell_angle_gamma 90
_cell_volume 1029.41
_cell_formula_units_Z 4
_symmetry_space_group_name_H-M 'I 4/m c m'
_symmetry_Int_Tables_number 140
_refine_ls_R_factor_all 0.035
loop_
_symmetry_equiv_pos_site_id
_symmetry_equiv_pos_as_xyz
1 'y, x, -z+1/2'
2 '-y, -x, -z+1/2'
3 '-y, x, -z'
4 'y, -x, -z'
5 'x, -y, -z+1/2'
6 '-x, y, -z+1/2'
7 'x, y, -z'
8 '-x, -y, -z'
9 '-y, -x, z+1/2'
10 'y, x, z+1/2'
11 'y, -x, z'
12 '-y, x, z'
13 '-x, y, z+1/2'
14 'x, -y, z+1/2'
15 '-x, -y, z'
16 'x, y, z'
17 'y+1/2, x+1/2, -z'
18 '-y+1/2, -x+1/2, -z'
19 '-y+1/2, x+1/2, -z+1/2'
20 'y+1/2, -x+1/2, -z+1/2'
21 'x+1/2, -y+1/2, -z'
22 '-x+1/2, y+1/2, -z'
23 'x+1/2, y+1/2, -z+1/2'
24 '-x+1/2, -y+1/2, -z+1/2'
25 '-y+1/2, -x+1/2, z'
26 'y+1/2, x+1/2, z'
27 'y+1/2, -x+1/2, z+1/2'
28 '-y+1/2, x+1/2, z+1/2'
29 '-x+1/2, y+1/2, z'
30 'x+1/2, -y+1/2, z'
31 '-x+1/2, -y+1/2, z+1/2'
32 'x+1/2, y+1/2, z+1/2'
loop_
_atom_type_symbol
_atom_type_oxidation_number
Sr0+ 0
Si0+ 0
loop_
_atom_site_label
_atom_site_type_symbol
_atom_site_symmetry_multiplicity
_atom_site_Wyckoff_symbol
_atom_site_fract_x
_atom_site_fract_y
_atom_site_fract_z
_atom_site_B_iso_or_equiv
_atom_site_occupancy
_atom_site_attached_hydrogens
Sr1 Sr0+ 4 c 0 0 0 1.27(5) 1. 0
Sr2 Sr0+ 16 l 0.18003(7) 0.68003(7) 0.14008(6) 0.74(2) 1. 0
Si1 Si0+ 4 a 0 0 0.25 1.0(1) 1. 0
Si2 Si0+ 8 h 0.3920(3) 0.8920(3) 0 0.59(9) 1. 0
loop_
_atom_site_aniso_label
_atom_site_aniso_type_symbol
_atom_site_aniso_U_11
_atom_site_aniso_U_22
_atom_site_aniso_U_33
_atom_site_aniso_U_12
_atom_site_aniso_U_13
_atom_site_aniso_U_23
Sr1 Sr0+ 0.0077(7) 0.0077(7) 0.033(1) 0. 0. 0.
Sr2 Sr0+ 0.0106(4) 0.0106(4) 0.0070(5) -0.0014(3) -0.0010(3) -0.0010(3)
Si1 Si0+ 0.013(2) 0.013(2) 0.013(3) 0. 0. 0.
Si2 Si0+ 0.008(1) 0.008(1) 0.006(2) -0.000(1) 0. 0.
#End of TTdata_93701-ICSD