
#(C) 2017 by FIZ Karlsruhe - Leibniz Institute for Information Infrastructure.  All rights reserved.
data_9389-ICSD
_database_code_ICSD 9389
_audit_creation_date 1980-01-01
_audit_update_record 2006-04-01
_chemical_name_systematic 'Titanium zirconium oxide (2/1/1) - omega'
_chemical_formula_structural 'Ti2 Zr O'
_chemical_formula_sum 'O1 Ti2 Zr1'
_exptl_crystal_density_diffrn 5.6
_publ_section_title

;
Description de la structure cristallographique d'une phase nouvelle omega' (O)
observee dans les alliages titane-zirconium-oxygene
;
loop_
_citation_id
_citation_journal_full
_citation_year
_citation_journal_volume
_citation_page_first
_citation_page_last
_citation_journal_id_ASTM
primary

;
Comptes Rendus Hebdomadaires des Seances de l'Academie des Sciences, Serie C,
Sciences Chimiques (1966-)
; 1972 274 444 447 CHDCAQ
loop_
_publ_author_name
'Dechamps, M.'
'Dubertret, A.'
'Lehr, P.'
_cell_length_a 4.838
_cell_length_b 8.147
_cell_length_c 6.107
_cell_angle_alpha 90.
_cell_angle_beta 90.
_cell_angle_gamma 90.
_cell_volume 240.71
_cell_formula_units_Z 4
_symmetry_space_group_name_H-M 'C m m m'
_symmetry_Int_Tables_number 65
_refine_ls_R_factor_all 0.059
loop_
_symmetry_equiv_pos_site_id
_symmetry_equiv_pos_as_xyz
1 'x, -y, z'
2 '-x, y, z'
3 'x, y, -z'
4 '-x, -y, -z'
5 '-x, y, -z'
6 'x, -y, -z'
7 '-x, -y, z'
8 'x, y, z'
9 'x+1/2, -y+1/2, z'
10 '-x+1/2, y+1/2, z'
11 'x+1/2, y+1/2, -z'
12 '-x+1/2, -y+1/2, -z'
13 '-x+1/2, y+1/2, -z'
14 'x+1/2, -y+1/2, -z'
15 '-x+1/2, -y+1/2, z'
16 'x+1/2, y+1/2, z'
loop_
_atom_type_symbol
_atom_type_oxidation_number
Ti0+ 0
Zr0+ 0
O0+ 0
loop_
_atom_site_label
_atom_site_type_symbol
_atom_site_symmetry_multiplicity
_atom_site_Wyckoff_symbol
_atom_site_fract_x
_atom_site_fract_y
_atom_site_fract_z
_atom_site_B_iso_or_equiv
_atom_site_occupancy
_atom_site_attached_hydrogens
Ti1 Ti0+ 8 n 0 0.338 0.254 2.25 1. 0
Zr1 Zr0+ 2 a 0 0 0 2.25 1. 0
Zr2 Zr0+ 2 d 0 0 0.5 2.25 1. 0
O1 O0+ 4 i 0.5 0.25 0 2.25 1. 0
#End of TTdata_9389-ICSD