
data_93906-ICSD
_database_code_ICSD 93906
_audit_creation_date 2003-04-01
_audit_update_record 2006-04-01
_chemical_name_systematic 'Palladium antimonide telluride (1/1/1)'
_chemical_formula_structural 'Pd Sb Te'
_chemical_formula_sum 'Pd1 Sb1 Te1'
_chemical_name_structure_type NiSSb
_chemical_name_mineral Testibiopalladite
_exptl_crystal_density_diffrn 8.46
_cell_length_a 6.5362(6)
_cell_length_b 6.5362(6)
_cell_length_c 6.5362(6)
_cell_angle_alpha 90
_cell_angle_beta 90
_cell_angle_gamma 90
_cell_volume 279.24
_cell_formula_units_Z 4
_symmetry_space_group_name_H-M 'P 21 3'
_symmetry_Int_Tables_number 198
_refine_ls_R_factor_all 0.028
loop_
_symmetry_equiv_pos_site_id
_symmetry_equiv_pos_as_xyz
1 '-z+1/2, -x, y+1/2'
2 '-y+1/2, -z, x+1/2'
3 '-x+1/2, -y, z+1/2'
4 '-z, x+1/2, -y+1/2'
5 '-y, z+1/2, -x+1/2'
6 '-x, y+1/2, -z+1/2'
7 'z+1/2, -x+1/2, -y'
8 'y+1/2, -z+1/2, -x'
9 'x+1/2, -y+1/2, -z'
10 'z, x, y'
11 'y, z, x'
12 'x, y, z'
loop_
_atom_type_symbol
_atom_type_oxidation_number
Pd3+ 3
Sb1- -1.5
Te1- -1.5
loop_
_atom_site_label
_atom_site_type_symbol
_atom_site_symmetry_multiplicity
_atom_site_Wyckoff_symbol
_atom_site_fract_x
_atom_site_fract_y
_atom_site_fract_z
_atom_site_B_iso_or_equiv
_atom_site_occupancy
_atom_site_attached_hydrogens
Pd1 Pd3+ 4 a 0.99802(9) 0.99802(9) 0.99802(9) 0.0091(3) 1. 0
Sb1 Sb1- 4 a 0.62709(7) 0.62709(7) 0.62709(7) 0.0097(3) 1. 0
Te1 Te1- 4 a 0.37278(7) 0.37278(7) 0.37278(7) 0.0114(3) 1. 0
loop_
_atom_site_aniso_label
_atom_site_aniso_type_symbol
_atom_site_aniso_U_11
_atom_site_aniso_U_22
_atom_site_aniso_U_33
_atom_site_aniso_U_12
_atom_site_aniso_U_13
_atom_site_aniso_U_23
Pd1 Pd3+ 0.0091(3) 0.0091(3) 0.0091(3) 0.0000(2) 0.0000(2) 0.0000(2)
Sb1 Sb1- 0.0097(3) 0.0097(3) 0.0097(3) 0.0012(2) 0.0012(2) 0.0012(2)
Te1 Te1- 0.0114(3) 0.0114(3) 0.0114(3) 0.0010(2) 0.0010(2) 0.0010(2)
