
#(C) 2017 by FIZ Karlsruhe - Leibniz Institute for Information Infrastructure.  All rights reserved.
data_94379-ICSD
_database_code_ICSD 94379
_audit_creation_date 2003-10-01
_chemical_name_systematic 'Cobalt phosphide (2/1)'
_chemical_formula_structural 'Co2 P'
_chemical_formula_sum 'Co2 P1'
_chemical_name_structure_type TiNiSi-MgSrSi
_exptl_crystal_density_diffrn 7.54
_publ_section_title

;
The crystal structure of Co2 P from X-ray powder diffraction data and its
mineralogical applications
;
loop_
_citation_id
_citation_journal_full
_citation_year
_citation_journal_volume
_citation_page_first
_citation_page_last
_citation_journal_id_ASTM
primary 'Bulletin of the Czech Geological Survey' 2001 76 209 216 VCGUEZ
loop_
_publ_author_name
'Skala, R.'
'Drabek, M.'
_cell_length_a 5.6490(3)
_cell_length_b 3.5126(2)
_cell_length_c 6.6071(3)
_cell_angle_alpha 90
_cell_angle_beta 90
_cell_angle_gamma 90
_cell_volume 131.1
_cell_formula_units_Z 4
_symmetry_space_group_name_H-M 'P n m a'
_symmetry_Int_Tables_number 62
_refine_ls_R_factor_all 0.0483
loop_
_symmetry_equiv_pos_site_id
_symmetry_equiv_pos_as_xyz
1 'x+1/2, y, -z+1/2'
2 'x, -y+1/2, z'
3 '-x+1/2, y+1/2, z+1/2'
4 '-x, -y, -z'
5 '-x+1/2, -y, z+1/2'
6 '-x, y+1/2, -z'
7 'x+1/2, -y+1/2, -z+1/2'
8 'x, y, z'
loop_
_atom_type_symbol
_atom_type_oxidation_number
Co0+ 0
P0+ 0
loop_
_atom_site_label
_atom_site_type_symbol
_atom_site_symmetry_multiplicity
_atom_site_Wyckoff_symbol
_atom_site_fract_x
_atom_site_fract_y
_atom_site_fract_z
_atom_site_B_iso_or_equiv
_atom_site_occupancy
_atom_site_attached_hydrogens
Co1 Co0+ 4 c 0.0305(4) 0.25 0.6654(3) 1.04(6) 1. 0
Co2 Co0+ 4 c 0.1456(4) 0.25 0.0640(3) 0.82(6) 1. 0
P1 P0+ 4 c 0.2528(9) 0.25 0.3778(5) 0.89(7) 1. 0
#End of TTdata_94379-ICSD