
#(C) 2017 by FIZ Karlsruhe - Leibniz Institute for Information Infrastructure.  All rights reserved.
data_9572-ICSD
_database_code_ICSD 9572
_audit_creation_date 1980-01-01
_audit_update_record 1984-07-05
_chemical_name_systematic 'Thallium cadmium antimony (1:1:1)'
_chemical_formula_structural 'Tl Cd Sb'
_chemical_formula_sum 'Cd1 Sb1 Tl1'
_chemical_name_structure_type TiNiSi-MgSrSi
_exptl_crystal_density_diffrn 8.56
_publ_section_title

;
Na Cd As Und Tl Cd Sb, ternaere Verbindungen mit modifizierter anti-Pb
Cl2-Struktur
;
loop_
_citation_id
_citation_journal_full
_citation_year
_citation_journal_volume
_citation_page_first
_citation_page_last
_citation_journal_id_ASTM
primary

;
Zeitschrift fuer Naturforschung, Teil B. Anorganische Chemie, Organische
Chemie (33,1978-41,1986)
; 1979 34 1686 1689 ZNBAD2
loop_
_publ_author_name
'Krenkel, B.'
'Tiburtius, C.'
'Schuster, H.U.'
_cell_length_a 8.177(5)
_cell_length_b 4.885(5)
_cell_length_c 8.514(5)
_cell_angle_alpha 90.
_cell_angle_beta 90.
_cell_angle_gamma 90.
_cell_volume 340.09
_cell_formula_units_Z 4
_symmetry_space_group_name_H-M 'P n m a'
_symmetry_Int_Tables_number 62
_refine_ls_R_factor_all 0.072
loop_
_symmetry_equiv_pos_site_id
_symmetry_equiv_pos_as_xyz
1 'x+1/2, y, -z+1/2'
2 'x, -y+1/2, z'
3 '-x+1/2, y+1/2, z+1/2'
4 '-x, -y, -z'
5 '-x+1/2, -y, z+1/2'
6 '-x, y+1/2, -z'
7 'x+1/2, -y+1/2, -z+1/2'
8 'x, y, z'
loop_
_atom_type_symbol
_atom_type_oxidation_number
Tl1+ 1
Cd2+ 2
Sb3- -3
loop_
_atom_site_label
_atom_site_type_symbol
_atom_site_symmetry_multiplicity
_atom_site_Wyckoff_symbol
_atom_site_fract_x
_atom_site_fract_y
_atom_site_fract_z
_atom_site_B_iso_or_equiv
_atom_site_occupancy
_atom_site_attached_hydrogens
Tl1 Tl1+ 4 c 0.4952(4) 0.75 0.6724(3) 0.0227(9) 1. 0
Cd1 Cd2+ 4 c 0.8427(7) 0.75 0.4136(8) 0.0199(20) 1. 0
Sb1 Sb3- 4 c 0.6963(6) 0.75 0.0987(7) 0.0139(16) 1. 0
#End of TTdata_9572-ICSD