
data_95756-ICSD
_database_code_ICSD 95756
_audit_creation_date 2004-04-01
_chemical_name_systematic 'Calcium iridium phosphide (1/2/2)'
_chemical_formula_structural 'Ca Ir2 P2'
_chemical_formula_sum 'Ca1 Ir2 P2'
_chemical_name_structure_type EuIr2P2
_exptl_crystal_density_diffrn 9.15
_cell_length_a 6.610(3)
_cell_length_b 6.610(3)
_cell_length_c 7.031(3)
_cell_angle_alpha 90
_cell_angle_beta 90
_cell_angle_gamma 120
_cell_volume 266.04
_cell_formula_units_Z 3
_symmetry_space_group_name_H-M 'P 32 2 1'
_symmetry_Int_Tables_number 154
_refine_ls_R_factor_all 0.04
loop_
_symmetry_equiv_pos_site_id
_symmetry_equiv_pos_as_xyz
1 '-x, -x+y, -z+2/3'
2 'x-y, -y, -z+1/3'
3 'y, x, -z'
4 '-x+y, -x, z+1/3'
5 '-y, x-y, z+2/3'
6 'x, y, z'
loop_
_atom_type_symbol
_atom_type_oxidation_number
Ca0+ 0
Ir0+ 0
P0+ 0
loop_
_atom_site_label
_atom_site_type_symbol
_atom_site_symmetry_multiplicity
_atom_site_Wyckoff_symbol
_atom_site_fract_x
_atom_site_fract_y
_atom_site_fract_z
_atom_site_B_iso_or_equiv
_atom_site_occupancy
_atom_site_attached_hydrogens
Ca1 Ca0+ 3 b 0.6034(5) 0 0.1667 0.0076(5) 1. 0
Ir1 Ir0+ 3 a 0.5198(1) 0 0.6667 0.0029(2) 1. 0
Ir2 Ir0+ 3 b 0.1350(1) 0 0.1667 0.0025(2) 1. 0
P1 P0+ 6 c 0.2279(5) 0.8875(5) 0.4581(4) 0.0040(4) 1. 0
