
#(C) 2017 by FIZ Karlsruhe - Leibniz Institute for Information Infrastructure.  All rights reserved.
data_95812-ICSD
_database_code_ICSD 95812
_audit_creation_date 2004-04-01
_chemical_name_systematic 'Dicesium tetrachloropalladate'
_chemical_formula_structural 'Cs2 (Pd Cl4)'
_chemical_formula_sum 'Cl4 Cs2 Pd1'
_chemical_name_structure_type Cs2PtCl4
_exptl_crystal_density_diffrn 3.32
_publ_section_title
'Cs2 (Pd Cl4) - neue Ergebnisse zu einer "altbekannten" Verbindung'
loop_
_citation_id
_citation_journal_full
_citation_year
_citation_journal_volume
_citation_page_first
_citation_page_last
_citation_journal_id_ASTM
primary 'Zeitschrift fuer Anorganische und Allgemeine Chemie (1950) (DE)' 2002
628 1708 1714 ZAACAB
loop_
_publ_author_name
'Schuepp, B.'
'Schroeder, L.'
'Schulte, H.'
'Baehtz, C.'
'Mattern, N.'
'Keller, H.L.'
_cell_length_a 10.529(1)
_cell_length_b 10.310(1)
_cell_length_c 9.460(1)
_cell_angle_alpha 90
_cell_angle_beta 90
_cell_angle_gamma 90
_cell_volume 1026.92
_cell_formula_units_Z 4
_symmetry_space_group_name_H-M 'C m c m'
_symmetry_Int_Tables_number 63
_refine_ls_R_factor_all 0.0518
loop_
_symmetry_equiv_pos_site_id
_symmetry_equiv_pos_as_xyz
1 '-x, y, -z+1/2'
2 '-x, -y, z+1/2'
3 '-x, y, z'
4 '-x, -y, -z'
5 'x, -y, z+1/2'
6 'x, y, -z+1/2'
7 'x, -y, -z'
8 'x, y, z'
9 '-x+1/2, y+1/2, -z+1/2'
10 '-x+1/2, -y+1/2, z+1/2'
11 '-x+1/2, y+1/2, z'
12 '-x+1/2, -y+1/2, -z'
13 'x+1/2, -y+1/2, z+1/2'
14 'x+1/2, y+1/2, -z+1/2'
15 'x+1/2, -y+1/2, -z'
16 'x+1/2, y+1/2, z'
loop_
_atom_type_symbol
_atom_type_oxidation_number
Cs1+ 1
Pd2+ 2
Cl1- -1
loop_
_atom_site_label
_atom_site_type_symbol
_atom_site_symmetry_multiplicity
_atom_site_Wyckoff_symbol
_atom_site_fract_x
_atom_site_fract_y
_atom_site_fract_z
_atom_site_B_iso_or_equiv
_atom_site_occupancy
_atom_site_attached_hydrogens
Cs1 Cs1+ 8 g 0.2709(1) 0.24187(9) 0.25 0.0546(5) 1. 0
Pd1 Pd2+ 4 a 0 0 0 0.0394(5) 1. 0
Cl1 Cl1- 8 e 0.2190(4) 0 0 0.052(1) 1. 0
Cl2 Cl1- 8 f 0 0.2231(4) 0.0221(5) 0.051(1) 1. 0
loop_
_atom_site_aniso_label
_atom_site_aniso_type_symbol
_atom_site_aniso_U_11
_atom_site_aniso_U_22
_atom_site_aniso_U_33
_atom_site_aniso_U_12
_atom_site_aniso_U_13
_atom_site_aniso_U_23
Cs1 Cs1+ 0.0594(8) 0.0618(8) 0.0425(7) -0.0117(6) 0. 0.
Pd1 Pd2+ 0.0398(9) 0.0389(9) 0.0395(9) 0. 0. 0.0004(7)
Cl1 Cl1- 0.043(2) 0.047(2) 0.066(3) 0. 0. -0.002(2)
Cl2 Cl1- 0.049(2) 0.043(2) 0.060(3) 0. 0. -0.003(2)
#End of TTdata_95812-ICSD