
#(C) 2017 by FIZ Karlsruhe - Leibniz Institute for Information Infrastructure.  All rights reserved.
data_95957-ICSD
_database_code_ICSD 95957
_audit_creation_date 2004-04-01
_chemical_name_systematic 'Strontium dicopper oxide - HP'
_chemical_formula_structural 'Sr Cu2 O3'
_chemical_formula_sum 'Cu2 O3 Sr1'
_chemical_name_structure_type CaCu2O3
_exptl_crystal_density_diffrn 6.45
_cell_measurement_pressure 6800000.
_publ_section_title

;
Prssure induced structural transitions of spin ladder compounds Sr Cu2 O3 and
Sr2 Cu3 O5
;
loop_
_citation_id
_citation_journal_full
_citation_year
_citation_journal_volume
_citation_page_first
_citation_page_last
_citation_journal_id_ASTM
primary

;
Funtai Oyobi Funmatsu Yakin (= Journal of the Japan Society of Powder
Metallurgy)
; 2002 49 377 381 FOFUA2
loop_
_publ_author_name
'Yoshida, H.'
'Saito, T.'
'Yamada, T.'
'Azuma, M.'
'Takano, M.'
_cell_length_a 10.6214(27)
_cell_length_b 3.8831(10)
_cell_length_c 3.2790(8)
_cell_angle_alpha 90
_cell_angle_beta 90
_cell_angle_gamma 90
_cell_volume 135.24
_cell_formula_units_Z 2
_symmetry_space_group_name_H-M 'P m m n Z'
_symmetry_Int_Tables_number 59
_refine_ls_R_factor_all 0.0217
loop_
_symmetry_equiv_pos_site_id
_symmetry_equiv_pos_as_xyz
1 'x+1/2, y+1/2, -z'
2 '-x, y+1/2, -z'
3 'x+1/2, -y, -z'
4 '-x, -y, -z'
5 '-x+1/2, -y+1/2, z'
6 'x, -y+1/2, z'
7 '-x+1/2, y, z'
8 'x, y, z'
loop_
_atom_type_symbol
_atom_type_oxidation_number
Sr2+ 2
Cu2+ 2
O2- -2
loop_
_atom_site_label
_atom_site_type_symbol
_atom_site_symmetry_multiplicity
_atom_site_Wyckoff_symbol
_atom_site_fract_x
_atom_site_fract_y
_atom_site_fract_z
_atom_site_B_iso_or_equiv
_atom_site_occupancy
_atom_site_attached_hydrogens
Sr1 Sr2+ 2 a 0.25 0.25 0.245(5) 0.4 1. 0
Cu1 Cu2+ 4 f 0.072(0) 0.75 0.720(3) 0.8 1. 0
O1 O2- 4 f 0.064(2) 0.25 0.753(20) 1. 1. 0
O2 O2- 2 b 0.25 0.75 0.387(9) 1. 1. 0
#End of TTdata_95957-ICSD