
#(C) 2017 by FIZ Karlsruhe - Leibniz Institute for Information Infrastructure.  All rights reserved.
data_96086-ICSD
_database_code_ICSD 96086
_audit_creation_date 2004-04-01
_chemical_name_systematic 'Barium phyllo-diniccolodivanadate(V)'
_chemical_formula_structural 'Ba (Ni2 V2 O8)'
_chemical_formula_sum 'Ba1 Ni2 O8 V2'
_chemical_name_structure_type BaNi2V2O8
_exptl_crystal_density_diffrn 4.93
_cell_measurement_temperature 295.
_publ_section_title 'Ba Ni2 V2 O8 : a two-dimensional honeycomb antiferromagnet'
loop_
_citation_id
_citation_journal_full
_citation_year
_citation_journal_volume
_citation_page_first
_citation_page_last
_citation_journal_id_ASTM
primary 'Physical Review, Serie 3. B - Condensed Matter (18,1978-)' 2002 65
144443-1 144443-7 PRBMDO
loop_
_publ_author_name
'Rogado, N.'
'Huang, Q.'
'Lynn, J.W.'
'Ramirez, A.P.'
'Huse, D.'
'Cava, R.J.'
_cell_length_a 5.02899(4)
_cell_length_b 5.02899(4)
_cell_length_c 22.3450(2)
_cell_angle_alpha 90
_cell_angle_beta 90
_cell_angle_gamma 120
_cell_volume 489.41
_cell_formula_units_Z 3
_symmetry_space_group_name_H-M 'R -3 H'
_symmetry_Int_Tables_number 148
_refine_ls_R_factor_all 0.0389
loop_
_symmetry_equiv_pos_site_id
_symmetry_equiv_pos_as_xyz
1 'x-y, x, -z'
2 'y, -x+y, -z'
3 '-x, -y, -z'
4 '-x+y, -x, z'
5 '-y, x-y, z'
6 'x, y, z'
7 'x-y+2/3, x+1/3, -z+1/3'
8 'y+2/3, -x+y+1/3, -z+1/3'
9 '-x+2/3, -y+1/3, -z+1/3'
10 '-x+y+2/3, -x+1/3, z+1/3'
11 '-y+2/3, x-y+1/3, z+1/3'
12 'x+2/3, y+1/3, z+1/3'
13 'x-y+1/3, x+2/3, -z+2/3'
14 'y+1/3, -x+y+2/3, -z+2/3'
15 '-x+1/3, -y+2/3, -z+2/3'
16 '-x+y+1/3, -x+2/3, z+2/3'
17 '-y+1/3, x-y+2/3, z+2/3'
18 'x+1/3, y+2/3, z+2/3'
loop_
_atom_type_symbol
_atom_type_oxidation_number
Ba2+ 2
Ni2+ 2
V5+ 5
O2- -2
loop_
_atom_site_label
_atom_site_type_symbol
_atom_site_symmetry_multiplicity
_atom_site_Wyckoff_symbol
_atom_site_fract_x
_atom_site_fract_y
_atom_site_fract_z
_atom_site_B_iso_or_equiv
_atom_site_occupancy
_atom_site_attached_hydrogens
Ba1 Ba2+ 3 a 0 0 0 0.86(5) 1. 0
Ni1 Ni2+ 6 c 0 0 0.16957(6) 0.53(2) 1. 0
V1 V5+ 6 c 0 0 0.42458 0.56 1. 0
O1 O2- 6 c 0 0 0.34994(9) . 1. 0
O2 O2- 18 f 0.6590(3) 0.0047(3) 0.21965(4) . 1. 0
loop_
_atom_site_aniso_label
_atom_site_aniso_type_symbol
_atom_site_aniso_U_11
_atom_site_aniso_U_22
_atom_site_aniso_U_33
_atom_site_aniso_U_12
_atom_site_aniso_U_13
_atom_site_aniso_U_23
O1 O2- 0.99(4) 0.99(4) 1.14(6) 0.40(2) 0. 0.
O2 O2- 0.54(4) 0.55(5) 1.41(5) 0.28(5) 0.16(5) 0.12(6)
#End of TTdata_96086-ICSD