
data_96180-ICSD
_database_code_ICSD 96180
_audit_creation_date 2004-04-01
_chemical_name_systematic 'Dimercury tetraselenidogermanate - LT'
_chemical_formula_structural 'Hg2 (Ge Se4)'
_chemical_formula_sum 'Ge1 Hg2 Se4'
_chemical_name_structure_type Al2CdS4
_exptl_crystal_density_diffrn 7.22
_cell_measurement_temperature 298.
_cell_length_a 5.6786(2)
_cell_length_b 5.6786(2)
_cell_length_c 11.2579(5)
_cell_angle_alpha 90
_cell_angle_beta 90
_cell_angle_gamma 90
_cell_volume 363.03
_cell_formula_units_Z 2
_symmetry_space_group_name_H-M 'I -4'
_symmetry_Int_Tables_number 82
_refine_ls_R_factor_all 0.0684
loop_
_symmetry_equiv_pos_site_id
_symmetry_equiv_pos_as_xyz
1 '-y, x, -z'
2 'y, -x, -z'
3 '-x, -y, z'
4 'x, y, z'
5 '-y+1/2, x+1/2, -z+1/2'
6 'y+1/2, -x+1/2, -z+1/2'
7 '-x+1/2, -y+1/2, z+1/2'
8 'x+1/2, y+1/2, z+1/2'
loop_
_atom_type_symbol
_atom_type_oxidation_number
Hg2+ 2
Ge4+ 4
Se2- -2
loop_
_atom_site_label
_atom_site_type_symbol
_atom_site_symmetry_multiplicity
_atom_site_Wyckoff_symbol
_atom_site_fract_x
_atom_site_fract_y
_atom_site_fract_z
_atom_site_B_iso_or_equiv
_atom_site_occupancy
_atom_site_attached_hydrogens
Hg1 Hg2+ 2 d 0 0.5 0.75 1.60(8) 1. 0
Hg2 Hg2+ 2 b 0 0 0.5 1.70(6) 1. 0
Ge1 Ge4+ 2 c 0 0.5 0.25 0.3(2) 1. 0
Se1 Se2- 8 g 0.1917(3) 0.7630(9) 0.1186(3) 0.69(5) 1. 0
