
data_9622-ICSD
_database_code_ICSD 9622
_audit_creation_date 1980-01-01
_audit_update_record 2000-07-15
_chemical_name_systematic 'Dibismuth palladate'
_chemical_formula_structural 'Bi2 (Pd O4)'
_chemical_formula_sum 'Bi2 O4 Pd1'
_exptl_crystal_density_diffrn 8.89
_cell_length_a 8.623
_cell_length_b 8.623
_cell_length_c 5.909
_cell_angle_alpha 90.
_cell_angle_beta 90.
_cell_angle_gamma 90.
_cell_volume 439.37
_cell_formula_units_Z 4
_symmetry_space_group_name_H-M 'I 4 c m'
_symmetry_Int_Tables_number 108
_refine_ls_R_factor_all 0.127
loop_
_symmetry_equiv_pos_site_id
_symmetry_equiv_pos_as_xyz
1 'y+1/2, x+1/2, z'
2 '-y+1/2, -x+1/2, z'
3 'y, -x, z'
4 '-y, x, z'
5 'x+1/2, -y+1/2, z'
6 '-x+1/2, y+1/2, z'
7 '-x, -y, z'
8 'x, y, z'
9 'y, x, z+1/2'
10 '-y, -x, z+1/2'
11 'y+1/2, -x+1/2, z+1/2'
12 '-y+1/2, x+1/2, z+1/2'
13 'x, -y, z+1/2'
14 '-x, y, z+1/2'
15 '-x+1/2, -y+1/2, z+1/2'
16 'x+1/2, y+1/2, z+1/2'
loop_
_atom_type_symbol
_atom_type_oxidation_number
Bi3+ 3
Pd2+ 2
O2- -2
loop_
_atom_site_label
_atom_site_type_symbol
_atom_site_symmetry_multiplicity
_atom_site_Wyckoff_symbol
_atom_site_fract_x
_atom_site_fract_y
_atom_site_fract_z
_atom_site_B_iso_or_equiv
_atom_site_occupancy
_atom_site_attached_hydrogens
Bi1 Bi3+ 8 c 0.1778 0.3222 0 . 1. 0
Pd1 Pd2+ 4 a 0 0 0.1699 . 1. 0
O1 O2- 16 d 0.21 0.098 0.15 . 1. 0
