
#(C) 2017 by FIZ Karlsruhe - Leibniz Institute for Information Infrastructure.  All rights reserved.
data_96545-ICSD
_database_code_ICSD 96545
_audit_creation_date 2004-04-01
_chemical_name_systematic 'Lanthanum phosphide (1/5)'
_chemical_formula_structural 'La P5'
_chemical_formula_sum 'La1 P5'
_chemical_name_structure_type GdP5
_exptl_crystal_density_diffrn 3.84
_cell_measurement_temperature 298.
_publ_section_title

;
High-pressure synthesis and structural characterization of three new
polyphosphides, alpha-(Sr P3), Ba P8 and La P5
;
loop_
_citation_id
_citation_journal_full
_citation_year
_citation_journal_volume
_citation_page_first
_citation_page_last
_citation_journal_id_ASTM
primary 'Journal of Solid State Chemistry' 2003 173 449 455 JSSCBI
loop_
_publ_author_name
'Chen, X.'
'Zhu, L.-P.'
'Yamanaka, S.'
_cell_length_a 4.885(1)
_cell_length_b 9.673(3)
_cell_length_c 5.577(2)
_cell_angle_alpha 90
_cell_angle_beta 105.32(2)
_cell_angle_gamma 90
_cell_volume 254.16
_cell_formula_units_Z 2
_symmetry_space_group_name_H-M 'P 1 21/m 1'
_symmetry_Int_Tables_number 11
_refine_ls_R_factor_all 0.0391
loop_
_symmetry_equiv_pos_site_id
_symmetry_equiv_pos_as_xyz
1 'x, -y+1/2, z'
2 '-x, -y, -z'
3 '-x, y+1/2, -z'
4 'x, y, z'
loop_
_atom_type_symbol
_atom_type_oxidation_number
La0+ 0
P0+ 0
loop_
_atom_site_label
_atom_site_type_symbol
_atom_site_symmetry_multiplicity
_atom_site_Wyckoff_symbol
_atom_site_fract_x
_atom_site_fract_y
_atom_site_fract_z
_atom_site_B_iso_or_equiv
_atom_site_occupancy
_atom_site_attached_hydrogens
La1 La0+ 2 e 0.45164(8) 0.25 0.12384(6) 0.0236(1) 1. 0
P1 P0+ 4 f 0.8789(2) 0.0899(1) 0.5371(2) 0.0198(2) 1. 0
P2 P0+ 4 f 0.7937(3) 0.0420(1) 0.8909(2) 0.0271(2) 1. 0
P3 P0+ 2 e 0.2097(3) 0.25 0.5715(3) 0.0213(2) 1. 0
#End of TTdata_96545-ICSD