
data_9684-ICSD
_database_code_ICSD 9684
_audit_creation_date 1980-01-01
_chemical_name_systematic 'Catena-difluorophosphazene conformer B'
_chemical_formula_structural 'N P F2'
_chemical_formula_sum 'F2 N1 P1'
_exptl_crystal_density_diffrn 2.43
_cell_measurement_temperature 217.
_cell_length_a 8.69
_cell_length_b 5.38
_cell_length_c 4.86
_cell_angle_alpha 90.
_cell_angle_beta 90.
_cell_angle_gamma 90.
_cell_volume 227.22
_cell_formula_units_Z 4
_symmetry_space_group_name_H-M 'C m c 21'
_symmetry_Int_Tables_number 36
_refine_ls_R_factor_all 0.135
loop_
_symmetry_equiv_pos_site_id
_symmetry_equiv_pos_as_xyz
1 'x, -y, z+1/2'
2 '-x, -y, z+1/2'
3 '-x, y, z'
4 'x, y, z'
5 'x+1/2, -y+1/2, z+1/2'
6 '-x+1/2, -y+1/2, z+1/2'
7 '-x+1/2, y+1/2, z'
8 'x+1/2, y+1/2, z'
loop_
_atom_type_symbol
_atom_type_oxidation_number
P5+ 5
N3- -3
F1- -1
loop_
_atom_site_label
_atom_site_type_symbol
_atom_site_symmetry_multiplicity
_atom_site_Wyckoff_symbol
_atom_site_fract_x
_atom_site_fract_y
_atom_site_fract_z
_atom_site_B_iso_or_equiv
_atom_site_occupancy
_atom_site_attached_hydrogens
P1 P5+ 4 a 0 0.129 0 . 1. 0
N1 N3- 4 a 0 0.915 0.203 . 1. 0
F1 F1- 8 b 0.125 0.299 0.068 . 1. 0
