
#(C) 2017 by FIZ Karlsruhe - Leibniz Institute for Information Infrastructure.  All rights reserved.
data_97540-ICSD
_database_code_ICSD 97540
_audit_creation_date 2004-10-01
_chemical_name_systematic 'Tribarium dichromium(III) sulfide'
_chemical_formula_structural 'Ba3 Cr2 S6'
_chemical_formula_sum 'Ba3 Cr2 S6'
_chemical_name_structure_type K4CdCl6
_exptl_crystal_density_diffrn 4.56
_cell_measurement_temperature 296.
_publ_section_title

;
High-pressure synthesis and structures of novel chromium sulfides, Ba3 Cr S5
and Ba3 Cr2 S6 with one-dimensional chain structures
;
loop_
_citation_id
_citation_journal_full
_citation_year
_citation_journal_volume
_citation_page_first
_citation_page_last
_citation_journal_id_ASTM
primary 'Journal of Solid State Chemistry' 2003 176 206 212 JSSCBI
loop_
_publ_author_name
'Fukuoka, H.'
'Miyaki, Y.'
'Yamanaka, S.'
_cell_length_a 11.8179(7)
_cell_length_b 11.8179(7)
_cell_length_c 12.796(1)
_cell_angle_alpha 90
_cell_angle_beta 90
_cell_angle_gamma 120
_cell_volume 1547.7
_cell_formula_units_Z 6
_symmetry_space_group_name_H-M 'R -3 c H'
_symmetry_Int_Tables_number 167
_refine_ls_R_factor_all 0.021
loop_
_symmetry_equiv_pos_site_id
_symmetry_equiv_pos_as_xyz
1 'x-y, -y, -z+1/2'
2 '-x, -x+y, -z+1/2'
3 'y, x, -z+1/2'
4 'x-y, x, -z'
5 'y, -x+y, -z'
6 '-x, -y, -z'
7 '-x+y, y, z+1/2'
8 'x, x-y, z+1/2'
9 '-y, -x, z+1/2'
10 '-x+y, -x, z'
11 '-y, x-y, z'
12 'x, y, z'
13 'x-y+2/3, -y+1/3, -z+5/6'
14 '-x+2/3, -x+y+1/3, -z+5/6'
15 'y+2/3, x+1/3, -z+5/6'
16 'x-y+2/3, x+1/3, -z+1/3'
17 'y+2/3, -x+y+1/3, -z+1/3'
18 '-x+2/3, -y+1/3, -z+1/3'
19 '-x+y+2/3, y+1/3, z+5/6'
20 'x+2/3, x-y+1/3, z+5/6'
21 '-y+2/3, -x+1/3, z+5/6'
22 '-x+y+2/3, -x+1/3, z+1/3'
23 '-y+2/3, x-y+1/3, z+1/3'
24 'x+2/3, y+1/3, z+1/3'
25 'x-y+1/3, -y+2/3, -z+1/6'
26 '-x+1/3, -x+y+2/3, -z+1/6'
27 'y+1/3, x+2/3, -z+1/6'
28 'x-y+1/3, x+2/3, -z+2/3'
29 'y+1/3, -x+y+2/3, -z+2/3'
30 '-x+1/3, -y+2/3, -z+2/3'
31 '-x+y+1/3, y+2/3, z+1/6'
32 'x+1/3, x-y+2/3, z+1/6'
33 '-y+1/3, -x+2/3, z+1/6'
34 '-x+y+1/3, -x+2/3, z+2/3'
35 '-y+1/3, x-y+2/3, z+2/3'
36 'x+1/3, y+2/3, z+2/3'
loop_
_atom_type_symbol
_atom_type_oxidation_number
Ba2+ 2
Cr3+ 3
S2- -2
loop_
_atom_site_label
_atom_site_type_symbol
_atom_site_symmetry_multiplicity
_atom_site_Wyckoff_symbol
_atom_site_fract_x
_atom_site_fract_y
_atom_site_fract_z
_atom_site_B_iso_or_equiv
_atom_site_occupancy
_atom_site_attached_hydrogens
Ba1 Ba2+ 18 e 0.94815(7) 0.28145(7) 0.41667 0.73(2) 1. 0
Cr1 Cr3+ 6 a 0 0 0.25 1.16(8) 1. 0
Cr2 Cr3+ 6 b 0 0 0.5 0.53(6) 1. 0
S1 S2- 36 f 0.0306(2) 0.8591(2) 0.3783(1) 0.82(5) 1. 0
loop_
_atom_site_aniso_label
_atom_site_aniso_type_symbol
_atom_site_aniso_U_11
_atom_site_aniso_U_22
_atom_site_aniso_U_33
_atom_site_aniso_U_12
_atom_site_aniso_U_13
_atom_site_aniso_U_23
Ba1 Ba2+ 0.0083(4) 0.0083(4) 0.0117(5) 0.0045(6) -.0014 0.0014
Cr1 Cr3+ 0.016(2) 0.016(2) 0.013(3) 0.0078(10) 0. 0.
Cr2 Cr3+ 0.008(1) 0.008(1) 0.004(2) 0.0040(5) 0. 0.
S1 S2- 0.010(1) 0.010(1) 0.012(1) 0.006(1) 0.000(1) -.001(1)
#End of TTdata_97540-ICSD