
#(C) 2017 by FIZ Karlsruhe - Leibniz Institute for Information Infrastructure.  All rights reserved.
data_97719-ICSD
_database_code_ICSD 97719
_audit_creation_date 2004-10-01
_chemical_name_systematic
'Sodium iron hydrogen molybdenum oxide (0.5/1/1/1.5/5)'
_chemical_formula_structural '(Na0.5 Fe H1.5 Mo O5)'
_chemical_formula_sum 'H1.5 Fe1 Mo1 Na0.5 O5'
_chemical_name_structure_type Tsumcorite
_exptl_crystal_density_diffrn 3.88
_publ_section_title

;
The synthesis and structural characterization of a novel layered compound
(Na0.5 Fe Mo H1.5 O5)n
;
loop_
_citation_id
_citation_journal_full
_citation_year
_citation_journal_volume
_citation_page_first
_citation_page_last
_citation_journal_id_ASTM
primary 'Inorganic Chemistry Communications' 2002 5 989 992 ICCOFP
loop_
_publ_author_name
'Chu De-Qing'
'Pan Chengling'
'Duan Limei'
'Xu Jiqing'
'Wang Limin'
'Yu Ji-Hui'
'Wang Tiegang'
_cell_length_a 9.501(2)
_cell_length_b 6.4129(13)
_cell_length_c 7.6581(14)
_cell_angle_alpha 90
_cell_angle_beta 116.04(2)
_cell_angle_gamma 90
_cell_volume 419.23
_cell_formula_units_Z 4
_symmetry_space_group_name_H-M 'C 1 2/m 1'
_symmetry_Int_Tables_number 12
_refine_ls_R_factor_all 0.0343
loop_
_symmetry_equiv_pos_site_id
_symmetry_equiv_pos_as_xyz
1 '-x, y, -z'
2 '-x, -y, -z'
3 'x, -y, z'
4 'x, y, z'
5 '-x+1/2, y+1/2, -z'
6 '-x+1/2, -y+1/2, -z'
7 'x+1/2, -y+1/2, z'
8 'x+1/2, y+1/2, z'
loop_
_atom_type_symbol
_atom_type_oxidation_number
Mo6+ 6
Na1+ 1
Fe2+ 2
O2- -2
H1+ 1
loop_
_atom_site_label
_atom_site_type_symbol
_atom_site_symmetry_multiplicity
_atom_site_Wyckoff_symbol
_atom_site_fract_x
_atom_site_fract_y
_atom_site_fract_z
_atom_site_B_iso_or_equiv
_atom_site_occupancy
_atom_site_attached_hydrogens
Mo1 Mo6+ 4 i 0.4179(1) 0 0.2115(1) 0.006(1) 1. 0
Na1 Na1+ 2 a 0.5 0.5 0 0.018(1) 1. 0
Fe1 Fe2+ 4 f 0.75 0.75 0.5 0.008(1) 1. 0
O1 O2- 4 i 0.3304(9) 0 0.3817(10) 0.013(2) 1. 0
O2 O2- 8 j 0.5342(6) 0.7750(9) 0.2398(7) 0.012(1) 1. 0
O3 O2- 4 i 0.2651(9) 0 -.0187(11) 0.019(2) 1. 0
O4 O2- 4 i 0.6486(8) 0.5 0.5859(10) 0.011(2) 1. 0
#End of TTdata_97719-ICSD