
#(C) 2017 by FIZ Karlsruhe - Leibniz Institute for Information Infrastructure.  All rights reserved.
data_98405-ICSD
_database_code_ICSD 98405
_audit_creation_date 2005-04-01
_chemical_name_systematic 'Molybdenum ruthenium phosphide (1/1/1) - o'
_chemical_formula_structural 'Mo Ru P'
_chemical_formula_sum 'Mo1 P1 Ru1'
_chemical_name_structure_type TiNiSi-MgSrSi
_exptl_crystal_density_diffrn 9.38
_publ_section_title

;
Structure and electronic properties of the orthorhombic Mo Ru P superconductor
prepaared at high pressure
;
loop_
_citation_id
_citation_journal_full
_citation_year
_citation_journal_volume
_citation_page_first
_citation_page_last
_citation_journal_id_ASTM
primary 'Physical Review, Serie 3. B - Condensed Matter (18,1978-)' 2003 67
144523-1 144523-9 PRBMDO
loop_
_publ_author_name
'Wong-Ng, W.'
'Ching, W.Y.'
'Xu Yongnian'
'Kaduk, J.A.'
'Shirotani, I.'
'Swartzendruber, L.'
_cell_length_a 6.03503(16)
_cell_length_b 3.85311(8)
_cell_length_c 6.94355(17)
_cell_angle_alpha 90
_cell_angle_beta 90
_cell_angle_gamma 90
_cell_volume 161.46
_cell_formula_units_Z 4
_symmetry_space_group_name_H-M 'P n m a'
_symmetry_Int_Tables_number 62
_refine_ls_R_factor_all 0.0584
loop_
_symmetry_equiv_pos_site_id
_symmetry_equiv_pos_as_xyz
1 'x+1/2, y, -z+1/2'
2 'x, -y+1/2, z'
3 '-x+1/2, y+1/2, z+1/2'
4 '-x, -y, -z'
5 '-x+1/2, -y, z+1/2'
6 '-x, y+1/2, -z'
7 'x+1/2, -y+1/2, -z+1/2'
8 'x, y, z'
loop_
_atom_type_symbol
_atom_type_oxidation_number
Ru0+ 0
Mo0+ 0
P0+ 0
loop_
_atom_site_label
_atom_site_type_symbol
_atom_site_symmetry_multiplicity
_atom_site_Wyckoff_symbol
_atom_site_fract_x
_atom_site_fract_y
_atom_site_fract_z
_atom_site_B_iso_or_equiv
_atom_site_occupancy
_atom_site_attached_hydrogens
Ru1 Ru0+ 4 c 0.1418(2) 0.25 0.4325(2) 0.001 1. 0
Mo1 Mo0+ 4 c 0.0262(2) 0.25 0.8295(2) 0.001 1. 0
P1 P0+ 4 c 0.7567(8) 0.25 0.3823(5) 0.005 1. 0
#End of TTdata_98405-ICSD