
data_98425-ICSD
_database_code_ICSD 98425
_audit_creation_date 2005-04-01
_chemical_name_systematic 'Lanthanum platinum boride (1/2/1)'
_chemical_formula_structural 'La Pt2 B'
_chemical_formula_sum 'B1 La1 Pt2'
_chemical_name_structure_type CePt2B
_exptl_crystal_density_diffrn 12.9
_cell_length_a 5.5222(3)
_cell_length_b 5.5222(3)
_cell_length_c 7.8978(4)
_cell_angle_alpha 90
_cell_angle_beta 90
_cell_angle_gamma 120
_cell_volume 208.57
_cell_formula_units_Z 3
_symmetry_space_group_name_H-M 'P 62 2 2'
_symmetry_Int_Tables_number 180
_refine_ls_R_factor_all 0.0546
loop_
_symmetry_equiv_pos_site_id
_symmetry_equiv_pos_as_xyz
1 'x, x-y, -z+1/3'
2 '-x+y, y, -z'
3 '-y, -x, -z+2/3'
4 '-x, -x+y, -z+1/3'
5 'x-y, -y, -z'
6 'y, x, -z+2/3'
7 'x-y, x, z+1/3'
8 'y, -x+y, z+2/3'
9 '-x, -y, z'
10 '-x+y, -x, z+1/3'
11 '-y, x-y, z+2/3'
12 'x, y, z'
loop_
_atom_type_symbol
_atom_type_oxidation_number
La0+ 0
Pt0+ 0
B0+ 0
loop_
_atom_site_label
_atom_site_type_symbol
_atom_site_symmetry_multiplicity
_atom_site_Wyckoff_symbol
_atom_site_fract_x
_atom_site_fract_y
_atom_site_fract_z
_atom_site_B_iso_or_equiv
_atom_site_occupancy
_atom_site_attached_hydrogens
La1 La0+ 3 c 0.5 0 0 0.147(12) 1. 0
Pt1 Pt0+ 6 i 0.1516(2) 0.3032(4) 0 0.302(10) 1. 0
B1 B0+ 3 d 0.5 0 0.5 0.5 1. 0
