
#(C) 2017 by FIZ Karlsruhe - Leibniz Institute for Information Infrastructure.  All rights reserved.
data_99274-ICSD
_database_code_ICSD 99274
_audit_creation_date 2005-04-01
_chemical_name_systematic 'Lanthanum platinum tin'
_chemical_formula_structural 'La Pt Sn'
_chemical_formula_sum 'La1 Pt1 Sn1'
_chemical_name_structure_type TiNiSi-MgSrSi
_exptl_crystal_density_diffrn 10.6
_publ_section_title 'Electronic structure and lattice geometry of La Pt Sn'
loop_
_citation_id
_citation_journal_full
_citation_year
_citation_journal_volume
_citation_page_first
_citation_page_last
_citation_journal_id_ASTM
primary 'Journal of Alloys and Compounds' 2004 376 28 33 JALCEU
loop_
_publ_author_name
'Divis, M.'
'Janousova, B.'
'Rusz, J.'
'Sechovsky, V.'
'Richter, M.'
'Opahle, I.'
_cell_length_a 7.5594(5)
_cell_length_b 4.6605(4)
_cell_length_c 8.0496(6)
_cell_angle_alpha 90
_cell_angle_beta 90
_cell_angle_gamma 90
_cell_volume 283.59
_cell_formula_units_Z 4
_symmetry_space_group_name_H-M 'P n m a'
_symmetry_Int_Tables_number 62
_refine_ls_R_factor_all 0.162
loop_
_symmetry_equiv_pos_site_id
_symmetry_equiv_pos_as_xyz
1 'x+1/2, y, -z+1/2'
2 'x, -y+1/2, z'
3 '-x+1/2, y+1/2, z+1/2'
4 '-x, -y, -z'
5 '-x+1/2, -y, z+1/2'
6 '-x, y+1/2, -z'
7 'x+1/2, -y+1/2, -z+1/2'
8 'x, y, z'
loop_
_atom_type_symbol
_atom_type_oxidation_number
La0+ 0
Pt0+ 0
Sn0+ 0
loop_
_atom_site_label
_atom_site_type_symbol
_atom_site_symmetry_multiplicity
_atom_site_Wyckoff_symbol
_atom_site_fract_x
_atom_site_fract_y
_atom_site_fract_z
_atom_site_B_iso_or_equiv
_atom_site_occupancy
_atom_site_attached_hydrogens
La1 La0+ 4 c 0.4948(13) 0.25 0.1921(4) 1.62(9) 1. 0
Pt1 Pt0+ 4 c 0.7073(4) 0.25 0.5897(6) 1.28(7) 1. 0
Sn1 Sn0+ 4 c 0.8219(5) 0.25 -0.0788(8) 2.01(14) 1. 0
#End of TTdata_99274-ICSD