
#(C) 2017 by FIZ Karlsruhe - Leibniz Institute for Information Infrastructure.  All rights reserved.
data_99304-ICSD
_database_code_ICSD 99304
_audit_creation_date 2005-04-01
_chemical_name_systematic 'Iron diiron(III) oxide - HP'
_chemical_formula_structural 'Fe3 O4'
_chemical_formula_sum 'Fe3 O4'
_chemical_name_structure_type CaTi2O4
_chemical_name_mineral Magnetite
_exptl_crystal_density_diffrn 6.44
_cell_measurement_pressure 41000000.
_publ_section_title

;
The structure of the metallic high-pressure Fe3 O4 polymorph: experimental and
theoretical study
;
loop_
_citation_id
_citation_journal_full
_citation_year
_citation_journal_volume
_citation_page_first
_citation_page_last
_citation_journal_id_ASTM
primary 'Journal of Physics: Condensed Matter' 2003 15 7697 7706 JCOMEL
loop_
_publ_author_name
'Dubrovinsky, L.S.'
'Dubrovinskaia, N.A.'
'McCammon, C.'
'Rozenberg, G.Kh.'
'Osorio-Guillen, J.M.'
'Dmitriev, V.'
'Weber, H.P.'
'Le Bihan, T.'
'Johansson, B.'
_cell_length_a 9.326(1)
_cell_length_b 9.288(1)
_cell_length_c 2.7555(5)
_cell_angle_alpha 90
_cell_angle_beta 90
_cell_angle_gamma 90
_cell_volume 238.68
_cell_formula_units_Z 4
_symmetry_space_group_name_H-M 'B b m m'
_symmetry_Int_Tables_number 63
_refine_ls_R_factor_all 0.021
loop_
_symmetry_equiv_pos_site_id
_symmetry_equiv_pos_as_xyz
1 'x, -y+1/2, -z'
2 '-x, y+1/2, -z'
3 'x, y, -z'
4 '-x, -y, -z'
5 '-x, y+1/2, z'
6 'x, -y+1/2, z'
7 '-x, -y, z'
8 'x, y, z'
9 'x+1/2, -y+1/2, -z+1/2'
10 '-x+1/2, y+1/2, -z+1/2'
11 'x+1/2, y, -z+1/2'
12 '-x+1/2, -y, -z+1/2'
13 '-x+1/2, y+1/2, z+1/2'
14 'x+1/2, -y+1/2, z+1/2'
15 '-x+1/2, -y, z+1/2'
16 'x+1/2, y, z+1/2'
loop_
_atom_type_symbol
_atom_type_oxidation_number
Fe2+ 2
Fe3+ 3
O2- -2
loop_
_atom_site_label
_atom_site_type_symbol
_atom_site_symmetry_multiplicity
_atom_site_Wyckoff_symbol
_atom_site_fract_x
_atom_site_fract_y
_atom_site_fract_z
_atom_site_B_iso_or_equiv
_atom_site_occupancy
_atom_site_attached_hydrogens
Fe1 Fe2+ 4 c 0.386(1) 0.25 0 . 1. 0
Fe2 Fe3+ 8 f 0.135(1) 0.076(3) 0 . 1. 0
O1 O2- 4 c 0.048(2) 0.25 0 . 1. 0
O2 O2- 8 f 0.210(1) 0.616(1) 0 . 1. 0
O3 O2- 4 b 0.5 0 0 . 1. 0
#End of TTdata_99304-ICSD