
#(C) 2017 by FIZ Karlsruhe - Leibniz Institute for Information Infrastructure.  All rights reserved.
data_99504-ICSD
_database_code_ICSD 99504
_audit_creation_date 2005-04-01
_audit_update_record 2015-08-01
_chemical_name_systematic 'Cesium iron sulfide (1/2/3)'
_chemical_formula_structural 'Cs (Fe2 S3)'
_chemical_formula_sum 'Cs1 Fe2 S3'
_chemical_name_structure_type CsCu2Cl3
_chemical_name_mineral Pautovite
_exptl_crystal_density_diffrn 3.75
_publ_section_title

;
Crystal structures of Cs Fe2 S3 and Rb Fe2 S3: synthetic analogs of rasvumite
K Fe2 S3
;
loop_
_citation_id
_citation_journal_full
_citation_year
_citation_journal_volume
_citation_page_first
_citation_page_last
_citation_journal_id_ASTM
primary 'Journal of Solid State Chemistry' 2004 177 1867 1872 JSSCBI
loop_
_publ_author_name
'Mitchell, R.H.'
'Ross, K.C.'
'Potter, E.G.'
_cell_length_a 9.5193(8)
_cell_length_b 11.5826(10)
_cell_length_c 5.4820(4)
_cell_angle_alpha 90
_cell_angle_beta 90
_cell_angle_gamma 90
_cell_volume 604.44
_cell_formula_units_Z 4
_symmetry_space_group_name_H-M 'C m c m'
_symmetry_Int_Tables_number 63
_refine_ls_R_factor_all 0.0296
loop_
_symmetry_equiv_pos_site_id
_symmetry_equiv_pos_as_xyz
1 '-x, y, -z+1/2'
2 '-x, -y, z+1/2'
3 '-x, y, z'
4 '-x, -y, -z'
5 'x, -y, z+1/2'
6 'x, y, -z+1/2'
7 'x, -y, -z'
8 'x, y, z'
9 '-x+1/2, y+1/2, -z+1/2'
10 '-x+1/2, -y+1/2, z+1/2'
11 '-x+1/2, y+1/2, z'
12 '-x+1/2, -y+1/2, -z'
13 'x+1/2, -y+1/2, z+1/2'
14 'x+1/2, y+1/2, -z+1/2'
15 'x+1/2, -y+1/2, -z'
16 'x+1/2, y+1/2, z'
loop_
_atom_type_symbol
_atom_type_oxidation_number
Cs1+ 1
Fe2+ 2.5
S2- -2
loop_
_atom_site_label
_atom_site_type_symbol
_atom_site_symmetry_multiplicity
_atom_site_Wyckoff_symbol
_atom_site_fract_x
_atom_site_fract_y
_atom_site_fract_z
_atom_site_B_iso_or_equiv
_atom_site_occupancy
_atom_site_attached_hydrogens
Cs1 Cs1+ 4 c 0.5 0.1684(3) 0.25 1.44(15) 1. 0
Fe1 Fe2+ 8 e 0.3582(5) 0.5 0 0.51(12) 1. 0
S1 S2- 4 c 0.5 0.6155(9) 0.25 1.50(18) 1. 0
S2 S2- 8 g 0.2302(8) 0.3932(7) 0.25 1.50(18) 1. 0
#End of TTdata_99504-ICSD