
#(C) 2017 by FIZ Karlsruhe - Leibniz Institute for Information Infrastructure.  All rights reserved.
data_99784-ICSD
_database_code_ICSD 99784
_audit_creation_date 2005-04-01
_audit_update_record 2007-04-01
_chemical_name_systematic 'Titanium oxide (2/1)'
_chemical_formula_structural 'Ti2 O'
_chemical_formula_sum 'O1 Ti2'
_chemical_name_structure_type CdI2
_exptl_crystal_density_diffrn 5.34
_cell_measurement_temperature 1100.
_publ_section_title

;
High-temperature synchrotron X-ray diffraction study of phases in a gamma Ti
Al alloy
;
loop_
_citation_id
_citation_journal_full
_citation_year
_citation_journal_volume
_citation_page_first
_citation_page_last
_citation_journal_id_ASTM
primary

;
Materials Science and Engineering A: Structural Matrials: Properties,
Microstructure and Processing
; 2004 371 103 112 MSAPE3
loop_
_publ_author_name
'Novoselova, T.'
'Malinov, S.'
'Sha, W.'
'Zhecheva, A.'
_cell_length_a 2.9194
_cell_length_b 2.9194
_cell_length_c 4.713
_cell_angle_alpha 90
_cell_angle_beta 90
_cell_angle_gamma 120
_cell_volume 34.79
_cell_formula_units_Z 1
_symmetry_space_group_name_H-M 'P -3 m 1'
_symmetry_Int_Tables_number 164
loop_
_symmetry_equiv_pos_site_id
_symmetry_equiv_pos_as_xyz
1 'x-y, -y, -z'
2 '-x, -x+y, -z'
3 'y, x, -z'
4 'x-y, x, -z'
5 'y, -x+y, -z'
6 '-x, -y, -z'
7 '-x+y, y, z'
8 'x, x-y, z'
9 '-y, -x, z'
10 '-x+y, -x, z'
11 '-y, x-y, z'
12 'x, y, z'
loop_
_atom_type_symbol
_atom_type_oxidation_number
Ti0+ 0
O0+ 0
loop_
_atom_site_label
_atom_site_type_symbol
_atom_site_symmetry_multiplicity
_atom_site_Wyckoff_symbol
_atom_site_fract_x
_atom_site_fract_y
_atom_site_fract_z
_atom_site_B_iso_or_equiv
_atom_site_occupancy
_atom_site_attached_hydrogens
Ti1 Ti0+ 2 d 0.6667 0.3333 0.27874 . 1. 0
O1 O0+ 1 a 0 0 0 . 1. 0
#End of TTdata_99784-ICSD